
     Program PWSCF v.7.3.1 starts on  4Nov2024 at 22: 0:33 

     This program is part of the open-source Quantum ESPRESSO suite
     for quantum simulation of materials; please cite
         "P. Giannozzi et al., J. Phys.:Condens. Matter 21 395502 (2009);
         "P. Giannozzi et al., J. Phys.:Condens. Matter 29 465901 (2017);
         "P. Giannozzi et al., J. Chem. Phys. 152 154105 (2020);
          URL http://www.quantum-espresso.org", 
     in publications or presentations arising from this work. More details at
     http://www.quantum-espresso.org/quote

     Parallel version (MPI), running on     1 processors

     MPI processes distributed on     1 nodes
     11915 MiB available memory on the printing compute node when the environment starts

     Waiting for input...
     Reading input from standard input

     Current dimensions of program PWSCF are:
     Max number of different atomic species (ntypx) = 10
     Max number of k-points (npk) =  40000
     Max angular momentum in pseudopotentials (lmaxx) =  4

     Subspace diagonalization in iterative solution of the eigenvalue problem:
     a serial algorithm will be used


     G-vector sticks info
     --------------------
     sticks:   dense  smooth     PW     G-vecs:    dense   smooth      PW
     Sum         151     151     55                 1139     1139     283

     Using Slab Decomposition



     bravais-lattice index     =            2
     lattice parameter (alat)  =       7.2600  a.u.
     unit-cell volume          =      95.6643 (a.u.)^3
     number of atoms/cell      =            1
     number of atomic types    =            1
     number of electrons       =        10.00
     number of Kohn-Sham states=           10
     kinetic-energy cutoff     =      20.0000  Ry
     charge density cutoff     =      80.0000  Ry
     scf convergence threshold =      1.0E-08
     mixing beta               =       0.7000
     number of iterations used =            8  plain     mixing
     Exchange-correlation=  SLA  PZ   NOGX NOGC
                           (   1   1   0   0   0   0   0)
     Non magnetic calculation with spin-orbit


     celldm(1)=   7.260000  celldm(2)=   0.000000  celldm(3)=   0.000000
     celldm(4)=   0.000000  celldm(5)=   0.000000  celldm(6)=   0.000000

     crystal axes: (cart. coord. in units of alat)
               a(1) = (  -0.500000   0.000000   0.500000 )  
               a(2) = (   0.000000   0.500000   0.500000 )  
               a(3) = (  -0.500000   0.500000   0.000000 )  

     reciprocal axes: (cart. coord. in units 2 pi/alat)
               b(1) = ( -1.000000 -1.000000  1.000000 )  
               b(2) = (  1.000000  1.000000  1.000000 )  
               b(3) = ( -1.000000  1.000000 -1.000000 )  


     PseudoPot. # 1 for Pt read from file:
     /home/dashlander/Desktop/Sem7/CPD/Assignment_3/pseudo/Pt.rel-pz-n-rrkjus.UPF
     MD5 check sum: 4baafe8ec1942611396c7a5466f52249
     Pseudo is Ultrasoft + core correction, Zval = 10.0
     Generated by new atomic code, or converted to UPF format
     Using radial grid of 1277 points,  6 beta functions with: 
                l(1) =   2
                l(2) =   2
                l(3) =   2
                l(4) =   2
                l(5) =   1
                l(6) =   1
     Q(r) pseudized with 0 coefficients 


     atomic species   valence    mass     pseudopotential
     Pt               10.00   195.08400     Pt( 1.00)

     48 Sym. Ops., with inversion, found



   Cartesian axes

     site n.     atom                  positions (alat units)
         1        Pt     tau(   1) = (   0.0000000   0.0000000   0.0000000  )

     number of k points=    35
                       cart. coord. in units 2pi/alat
        k(    1) = (   0.0000000   0.0000000   0.0000000), wk =   0.0013717
        k(    2) = (  -0.1111111   0.1111111  -0.1111111), wk =   0.0109739
        k(    3) = (  -0.2222222   0.2222222  -0.2222222), wk =   0.0109739
        k(    4) = (  -0.3333333   0.3333333  -0.3333333), wk =   0.0109739
        k(    5) = (  -0.4444444   0.4444444  -0.4444444), wk =   0.0109739
        k(    6) = (   0.0000000   0.2222222   0.0000000), wk =   0.0082305
        k(    7) = (  -0.1111111   0.3333333  -0.1111111), wk =   0.0329218
        k(    8) = (  -0.2222222   0.4444444  -0.2222222), wk =   0.0329218
        k(    9) = (  -0.3333333   0.5555556  -0.3333333), wk =   0.0329218
        k(   10) = (   0.5555556  -0.3333333   0.5555556), wk =   0.0329218
        k(   11) = (   0.4444444  -0.2222222   0.4444444), wk =   0.0329218
        k(   12) = (   0.3333333  -0.1111111   0.3333333), wk =   0.0329218
        k(   13) = (   0.2222222  -0.0000000   0.2222222), wk =   0.0164609
        k(   14) = (   0.0000000   0.4444444   0.0000000), wk =   0.0082305
        k(   15) = (  -0.1111111   0.5555556  -0.1111111), wk =   0.0329218
        k(   16) = (  -0.2222222   0.6666667  -0.2222222), wk =   0.0329218
        k(   17) = (   0.6666667  -0.2222222   0.6666667), wk =   0.0329218
        k(   18) = (   0.5555556  -0.1111111   0.5555556), wk =   0.0329218
        k(   19) = (   0.4444444   0.0000000   0.4444444), wk =   0.0164609
        k(   20) = (   0.0000000   0.6666667   0.0000000), wk =   0.0082305
        k(   21) = (  -0.1111111   0.7777778  -0.1111111), wk =   0.0329218
        k(   22) = (   0.7777778  -0.1111111   0.7777778), wk =   0.0329218
        k(   23) = (   0.6666667  -0.0000000   0.6666667), wk =   0.0164609
        k(   24) = (   0.0000000   0.8888889   0.0000000), wk =   0.0082305
        k(   25) = (   0.8888889   0.0000000   0.8888889), wk =   0.0164609
        k(   26) = (  -0.2222222   0.4444444   0.0000000), wk =   0.0329218
        k(   27) = (  -0.3333333   0.5555556  -0.1111111), wk =   0.0658436
        k(   28) = (   0.5555556  -0.3333333   0.7777778), wk =   0.0658436
        k(   29) = (  -0.2222222   0.6666667   0.0000000), wk =   0.0329218
        k(   30) = (   0.6666667  -0.2222222   0.8888889), wk =   0.0658436
        k(   31) = (   0.5555556  -0.1111111   0.7777778), wk =   0.0658436
        k(   32) = (   0.4444444   0.0000000   0.6666667), wk =   0.0329218
        k(   33) = (   0.7777778  -0.1111111   1.0000000), wk =   0.0329218
        k(   34) = (   0.6666667  -0.0000000   0.8888889), wk =   0.0329218
        k(   35) = (   0.5555556  -0.1111111   1.0000000), wk =   0.0329218

     Dense  grid:     1139 G-vectors     FFT dimensions: (  15,  15,  15)

     Estimated max dynamical RAM per process >      11.17 MB

     Check: negative core charge=   -0.000044

     Initial potential from superposition of free atoms

     starting charge       9.9999, renormalised to      10.0000

     negative rho (up, down):  1.530E-04 0.000E+00
     Starting wfcs are   12 randomized atomic wfcs

     total cpu time spent up to now is        0.4 secs

     Self-consistent Calculation

     iteration #  1     ecut=    20.00 Ry     beta= 0.70
     Davidson diagonalization with overlap
     ethr =  1.00E-02,  avg # of iterations =  2.2

     Threshold (ethr) on eigenvalues was too large:
     Diagonalizing with lowered threshold

     Davidson diagonalization with overlap
     c_bands:  1 eigenvalues not converged
     ethr =  1.49E-05,  avg # of iterations =  7.9

     negative rho (up, down):  2.458E-04 0.000E+00

     total cpu time spent up to now is        0.9 secs

     total energy              =     -69.44836182 Ry
     estimated scf accuracy    <       0.00447541 Ry

     iteration #  2     ecut=    20.00 Ry     beta= 0.70
     Davidson diagonalization with overlap
     ethr =  4.48E-05,  avg # of iterations =  2.1

     negative rho (up, down):  2.723E-04 0.000E+00

     total cpu time spent up to now is        1.1 secs

     total energy              =     -69.44953935 Ry
     estimated scf accuracy    <       0.00045920 Ry

     iteration #  3     ecut=    20.00 Ry     beta= 0.70
     Davidson diagonalization with overlap
     ethr =  4.59E-06,  avg # of iterations =  2.2

     negative rho (up, down):  2.913E-04 0.000E+00

     total cpu time spent up to now is        1.3 secs

     total energy              =     -69.44961474 Ry
     estimated scf accuracy    <       0.00001406 Ry

     iteration #  4     ecut=    20.00 Ry     beta= 0.70
     Davidson diagonalization with overlap
     ethr =  1.41E-07,  avg # of iterations =  6.4

     negative rho (up, down):  2.914E-04 0.000E+00

     total cpu time spent up to now is        1.6 secs

     total energy              =     -69.44963233 Ry
     estimated scf accuracy    <       0.00000214 Ry

     iteration #  5     ecut=    20.00 Ry     beta= 0.70
     Davidson diagonalization with overlap
     ethr =  2.14E-08,  avg # of iterations =  3.4

     negative rho (up, down):  2.920E-04 0.000E+00

     total cpu time spent up to now is        1.8 secs

     total energy              =     -69.44963247 Ry
     estimated scf accuracy    <       0.00000034 Ry

     iteration #  6     ecut=    20.00 Ry     beta= 0.70
     Davidson diagonalization with overlap
     ethr =  3.36E-09,  avg # of iterations =  4.0

     negative rho (up, down):  2.921E-04 0.000E+00

     total cpu time spent up to now is        2.0 secs

     total energy              =     -69.44963266 Ry
     estimated scf accuracy    <       0.00000005 Ry

     iteration #  7     ecut=    20.00 Ry     beta= 0.70
     Davidson diagonalization with overlap
     ethr =  4.59E-10,  avg # of iterations =  4.1

     negative rho (up, down):  2.921E-04 0.000E+00

     total cpu time spent up to now is        2.2 secs

     total energy              =     -69.44963267 Ry
     estimated scf accuracy    <       0.00000004 Ry

     iteration #  8     ecut=    20.00 Ry     beta= 0.70
     Davidson diagonalization with overlap
     ethr =  4.03E-10,  avg # of iterations =  2.1

     negative rho (up, down):  2.921E-04 0.000E+00

     total cpu time spent up to now is        2.4 secs

     End of self-consistent calculation

          k = 0.0000 0.0000 0.0000 (   137 PWs)   bands (ev):

     8.2525   8.2525  14.6923  14.6923  14.6923  14.6923  15.6731  15.6731
    17.6741  17.6741

          k =-0.1111 0.1111-0.1111 (   153 PWs)   bands (ev):

     8.7626   8.7626  14.6255  14.6255  14.8152  14.8152  15.7968  15.7968
    17.4918  17.4918

          k =-0.2222 0.2222-0.2222 (   150 PWs)   bands (ev):

    10.0539  10.0539  14.5036  14.5036  14.9153  14.9153  16.1006  16.1006
    17.4075  17.4075

          k =-0.3333 0.3333-0.3333 (   144 PWs)   bands (ev):

    11.0879  11.0879  14.7272  14.7272  15.4614  15.4614  15.8449  15.8449
    18.2443  18.2443

          k =-0.4444 0.4444-0.4444 (   147 PWs)   bands (ev):

    11.2504  11.2504  14.5158  14.5158  15.5242  15.5242  17.7531  17.7531
    19.0328  19.0328

          k = 0.0000 0.2222 0.0000 (   153 PWs)   bands (ev):

     8.9362   8.9362  14.4388  14.4388  14.9911  14.9911  15.8898  15.8898
    17.2333  17.2333

          k =-0.1111 0.3333-0.1111 (   146 PWs)   bands (ev):

    10.0040  10.0040  14.1167  14.1167  15.1503  15.1503  16.2786  16.2786
    17.0530  17.0530

          k =-0.2222 0.4444-0.2222 (   145 PWs)   bands (ev):

    11.2729  11.2729  14.3207  14.3207  14.8756  14.8756  16.1200  16.1200
    18.0791  18.0791

          k =-0.3333 0.5556-0.3333 (   147 PWs)   bands (ev):

    11.6429  11.6429  14.4912  14.4912  15.5471  15.5471  16.0867  16.0867
    19.3161  19.3161

          k = 0.5556-0.3333 0.5556 (   147 PWs)   bands (ev):

    11.6597  11.6597  14.4068  14.4068  15.5462  15.5462  16.8189  16.8189
    19.2407  19.2407

          k = 0.4444-0.2222 0.4444 (   146 PWs)   bands (ev):

    11.6477  11.6477  14.5966  14.5966  15.4677  15.4677  15.8190  15.8190
    18.2758  18.2758

          k = 0.3333-0.1111 0.3333 (   147 PWs)   bands (ev):

    10.9383  10.9383  14.2444  14.2444  14.9905  14.9905  16.2030  16.2030
    17.1721  17.1721

          k = 0.2222-0.0000 0.2222 (   145 PWs)   bands (ev):

     9.5642   9.5642  14.3666  14.3666  15.0119  15.0119  16.0816  16.0816
    17.0980  17.0980

          k = 0.0000 0.4444 0.0000 (   149 PWs)   bands (ev):

    10.6772  10.6772  13.5590  13.5590  15.4615  15.4615  16.8786  16.8786
    16.8917  16.8917

          k =-0.1111 0.5556-0.1111 (   141 PWs)   bands (ev):

    11.6991  11.6991  13.2303  13.2303  15.2430  15.2430  17.0628  17.0628
    18.1018  18.1018

          k =-0.2222 0.6667-0.2222 (   143 PWs)   bands (ev):

    12.2390  12.2390  13.6284  13.6284  14.9972  14.9972  16.8115  16.8115
    19.4555  19.4555

          k = 0.6667-0.2222 0.6667 (   144 PWs)   bands (ev):

    12.4513  12.4513  13.8957  13.8957  15.3288  15.3288  16.5441  16.5441
    19.3220  19.3220

          k = 0.5556-0.1111 0.5556 (   144 PWs)   bands (ev):

    12.7262  12.7262  14.1042  14.1042  14.9274  14.9274  16.3575  16.3575
    18.3113  18.3113

          k = 0.4444 0.0000 0.4444 (   144 PWs)   bands (ev):

    12.3341  12.3341  13.9663  13.9663  14.6990  14.6990  16.4084  16.4084
    17.2426  17.2426

          k = 0.0000 0.6667 0.0000 (   141 PWs)   bands (ev):

    11.7641  11.7641  12.6091  12.6091  16.5824  16.5824  18.1904  18.1904
    18.2780  18.2780

          k =-0.1111 0.7778-0.1111 (   139 PWs)   bands (ev):

    11.9041  11.9041  12.4868  12.4868  16.7846  16.7846  18.2914  18.2914
    19.5397  19.5397

          k = 0.7778-0.1111 0.7778 (   140 PWs)   bands (ev):

    12.2233  12.2233  13.0088  13.0088  16.1225  16.1225  17.8433  17.8433
    19.5498  19.5498

          k = 0.6667-0.0000 0.6667 (   142 PWs)   bands (ev):

    12.7720  12.7720  13.7608  13.7608  15.1174  15.1174  17.1996  17.1996
    18.7988  18.7988

          k = 0.0000 0.8889 0.0000 (   142 PWs)   bands (ev):

    11.4926  11.4926  12.0427  12.0427  19.0540  19.0540  19.1794  19.1794
    20.0956  20.0956

          k = 0.8889 0.0000 0.8889 (   142 PWs)   bands (ev):

    11.6624  11.6624  12.2043  12.2043  18.0274  18.0274  18.8963  18.8963
    19.9771  19.9771

          k =-0.2222 0.4444 0.0000 (   143 PWs)   bands (ev):

    11.1774  11.1774  13.7341  13.7341  15.0358  15.0358  16.7617  16.7617
    17.0278  17.0278

          k =-0.3333 0.5556-0.1111 (   143 PWs)   bands (ev):

    12.2449  12.2449  14.0127  14.0127  14.5325  14.5325  16.5619  16.5619
    18.1207  18.1207

          k = 0.5556-0.3333 0.7778 (   141 PWs)   bands (ev):

    12.3669  12.3669  14.0449  14.0449  15.2781  15.2781  16.3397  16.3397
    19.1034  19.1034

          k =-0.2222 0.6667 0.0000 (   145 PWs)   bands (ev):

    12.3122  12.3122  12.9591  12.9591  15.2308  15.2308  17.9972  17.9972
    18.2989  18.2989

          k = 0.6667-0.2222 0.8889 (   146 PWs)   bands (ev):

    12.6522  12.6522  13.3314  13.3314  14.9977  14.9977  17.5595  17.5595
    19.2709  19.2709

          k = 0.5556-0.1111 0.7778 (   143 PWs)   bands (ev):

    13.0543  13.0543  13.6058  13.6058  14.7989  14.7989  17.0810  17.0810
    19.1658  19.1658

          k = 0.4444 0.0000 0.6667 (   144 PWs)   bands (ev):

    13.4272  13.4272  13.7609  13.7609  14.0007  14.0007  17.0949  17.0949
    18.3571  18.3571

          k = 0.7778-0.1111 1.0000 (   145 PWs)   bands (ev):

    11.9994  11.9994  12.4789  12.4789  16.7812  16.7812  18.6015  18.6015
    19.7756  19.7756

          k = 0.6667-0.0000 0.8889 (   143 PWs)   bands (ev):

    12.4516  12.4516  13.0872  13.0872  15.7659  15.7659  17.7955  17.7955
    19.7433  19.7433

          k = 0.5556-0.1111 1.0000 (   147 PWs)   bands (ev):

    12.9592  12.9592  13.7410  13.7410  14.5146  14.5146  17.3567  17.3567
    19.7130  19.7130

     highest occupied level (ev):    20.0956

!    total energy              =     -69.44963268 Ry
     estimated scf accuracy    <          7.3E-11 Ry

     The total energy is the sum of the following terms:
     one-electron contribution =      18.90355163 Ry
     hartree contribution      =       3.43297339 Ry
     xc contribution           =     -28.63378750 Ry
     ewald contribution        =     -63.15237021 Ry

     convergence has been achieved in   8 iterations

     negative rho (up, down):  2.921E-04 0.000E+00

     Forces acting on atoms (cartesian axes, Ry/au):

     atom    1 type  1   force =     0.00000000    0.00000000    0.00000000

     Total force =     0.000000     Total SCF correction =     0.000000


     Computing stress (Cartesian axis) and pressure


     negative rho (up, down):  2.921E-04 0.000E+00
          total   stress  (Ry/bohr**3)                   (kbar)     P=      298.48
   0.00202906   0.00000000   0.00000000          298.48        0.00        0.00
   0.00000000   0.00202906  -0.00000000            0.00      298.48       -0.00
   0.00000000  -0.00000000   0.00202906            0.00       -0.00      298.48


     Writing all to output data dir ./platinum.save/ :
     XML data file, charge density, pseudopotentials, collected wavefunctions

     init_run     :      0.22s CPU      0.27s WALL (       1 calls)
     electrons    :      1.79s CPU      2.06s WALL (       1 calls)
     forces       :      0.04s CPU      0.04s WALL (       1 calls)
     stress       :      0.14s CPU      0.14s WALL (       1 calls)

     Called by init_run:
     wfcinit      :      0.05s CPU      0.07s WALL (       1 calls)
     potinit      :      0.01s CPU      0.01s WALL (       1 calls)
     hinit0       :      0.15s CPU      0.17s WALL (       1 calls)

     Called by electrons:
     c_bands      :      1.41s CPU      1.64s WALL (       9 calls)
     sum_band     :      0.30s CPU      0.33s WALL (       9 calls)
     v_of_rho     :      0.00s CPU      0.00s WALL (       9 calls)
     newd         :      0.10s CPU      0.10s WALL (       9 calls)
     mix_rho      :      0.00s CPU      0.00s WALL (       9 calls)

     Called by c_bands:
     init_us_2    :      0.02s CPU      0.02s WALL (     735 calls)
     cegterg      :      1.33s CPU      1.55s WALL (     315 calls)

     Called by *egterg:
     cdiaghg      :      0.09s CPU      0.10s WALL (    1488 calls)
     h_psi        :      0.79s CPU      0.94s WALL (    1558 calls)
     s_psi        :      0.12s CPU      0.14s WALL (    1558 calls)
     g_psi        :      0.01s CPU      0.01s WALL (    1208 calls)

     Called by h_psi:
     h_psi:calbec :      0.09s CPU      0.11s WALL (    1558 calls)
     vloc_psi     :      0.56s CPU      0.67s WALL (    1558 calls)
     add_vuspsi   :      0.12s CPU      0.14s WALL (    1558 calls)

     General routines
     calbec       :      0.13s CPU      0.15s WALL (    2048 calls)
     fft          :      0.01s CPU      0.03s WALL (      99 calls)
     ffts         :      0.00s CPU      0.00s WALL (      36 calls)
     fftw         :      0.42s CPU      0.50s WALL (   51904 calls)

     Parallel routines

     PWSCF        :      2.30s CPU      2.61s WALL


   This run was terminated on:  22: 0:35   4Nov2024            

=------------------------------------------------------------------------------=
   JOB DONE.
=------------------------------------------------------------------------------=
