
     Program PWSCF v.7.3.1 starts on  4Nov2024 at 22: 2: 7 

     This program is part of the open-source Quantum ESPRESSO suite
     for quantum simulation of materials; please cite
         "P. Giannozzi et al., J. Phys.:Condens. Matter 21 395502 (2009);
         "P. Giannozzi et al., J. Phys.:Condens. Matter 29 465901 (2017);
         "P. Giannozzi et al., J. Chem. Phys. 152 154105 (2020);
          URL http://www.quantum-espresso.org", 
     in publications or presentations arising from this work. More details at
     http://www.quantum-espresso.org/quote

     Parallel version (MPI), running on     1 processors

     MPI processes distributed on     1 nodes
     11849 MiB available memory on the printing compute node when the environment starts

     Waiting for input...
     Reading input from standard input

     Current dimensions of program PWSCF are:
     Max number of different atomic species (ntypx) = 10
     Max number of k-points (npk) =  40000
     Max angular momentum in pseudopotentials (lmaxx) =  4

     Subspace diagonalization in iterative solution of the eigenvalue problem:
     a serial algorithm will be used


     G-vector sticks info
     --------------------
     sticks:   dense  smooth     PW     G-vecs:    dense   smooth      PW
     Sum         163     163     61                 1363     1363     331

     Using Slab Decomposition



     bravais-lattice index     =            2
     lattice parameter (alat)  =       7.6800  a.u.
     unit-cell volume          =     113.2462 (a.u.)^3
     number of atoms/cell      =            1
     number of atomic types    =            1
     number of electrons       =        10.00
     number of Kohn-Sham states=           10
     kinetic-energy cutoff     =      20.0000  Ry
     charge density cutoff     =      80.0000  Ry
     scf convergence threshold =      1.0E-08
     mixing beta               =       0.7000
     number of iterations used =            8  plain     mixing
     Exchange-correlation=  SLA  PZ   NOGX NOGC
                           (   1   1   0   0   0   0   0)
     Non magnetic calculation with spin-orbit


     celldm(1)=   7.680000  celldm(2)=   0.000000  celldm(3)=   0.000000
     celldm(4)=   0.000000  celldm(5)=   0.000000  celldm(6)=   0.000000

     crystal axes: (cart. coord. in units of alat)
               a(1) = (  -0.500000   0.000000   0.500000 )  
               a(2) = (   0.000000   0.500000   0.500000 )  
               a(3) = (  -0.500000   0.500000   0.000000 )  

     reciprocal axes: (cart. coord. in units 2 pi/alat)
               b(1) = ( -1.000000 -1.000000  1.000000 )  
               b(2) = (  1.000000  1.000000  1.000000 )  
               b(3) = ( -1.000000  1.000000 -1.000000 )  


     PseudoPot. # 1 for Pt read from file:
     /home/dashlander/Desktop/Sem7/CPD/Assignment_3/pseudo/Pt.rel-pz-n-rrkjus.UPF
     MD5 check sum: 4baafe8ec1942611396c7a5466f52249
     Pseudo is Ultrasoft + core correction, Zval = 10.0
     Generated by new atomic code, or converted to UPF format
     Using radial grid of 1277 points,  6 beta functions with: 
                l(1) =   2
                l(2) =   2
                l(3) =   2
                l(4) =   2
                l(5) =   1
                l(6) =   1
     Q(r) pseudized with 0 coefficients 


     atomic species   valence    mass     pseudopotential
     Pt               10.00   195.08400     Pt( 1.00)

     48 Sym. Ops., with inversion, found



   Cartesian axes

     site n.     atom                  positions (alat units)
         1        Pt     tau(   1) = (   0.0000000   0.0000000   0.0000000  )

     number of k points=    35
                       cart. coord. in units 2pi/alat
        k(    1) = (   0.0000000   0.0000000   0.0000000), wk =   0.0013717
        k(    2) = (  -0.1111111   0.1111111  -0.1111111), wk =   0.0109739
        k(    3) = (  -0.2222222   0.2222222  -0.2222222), wk =   0.0109739
        k(    4) = (  -0.3333333   0.3333333  -0.3333333), wk =   0.0109739
        k(    5) = (  -0.4444444   0.4444444  -0.4444444), wk =   0.0109739
        k(    6) = (   0.0000000   0.2222222   0.0000000), wk =   0.0082305
        k(    7) = (  -0.1111111   0.3333333  -0.1111111), wk =   0.0329218
        k(    8) = (  -0.2222222   0.4444444  -0.2222222), wk =   0.0329218
        k(    9) = (  -0.3333333   0.5555556  -0.3333333), wk =   0.0329218
        k(   10) = (   0.5555556  -0.3333333   0.5555556), wk =   0.0329218
        k(   11) = (   0.4444444  -0.2222222   0.4444444), wk =   0.0329218
        k(   12) = (   0.3333333  -0.1111111   0.3333333), wk =   0.0329218
        k(   13) = (   0.2222222  -0.0000000   0.2222222), wk =   0.0164609
        k(   14) = (   0.0000000   0.4444444   0.0000000), wk =   0.0082305
        k(   15) = (  -0.1111111   0.5555556  -0.1111111), wk =   0.0329218
        k(   16) = (  -0.2222222   0.6666667  -0.2222222), wk =   0.0329218
        k(   17) = (   0.6666667  -0.2222222   0.6666667), wk =   0.0329218
        k(   18) = (   0.5555556  -0.1111111   0.5555556), wk =   0.0329218
        k(   19) = (   0.4444444   0.0000000   0.4444444), wk =   0.0164609
        k(   20) = (   0.0000000   0.6666667   0.0000000), wk =   0.0082305
        k(   21) = (  -0.1111111   0.7777778  -0.1111111), wk =   0.0329218
        k(   22) = (   0.7777778  -0.1111111   0.7777778), wk =   0.0329218
        k(   23) = (   0.6666667  -0.0000000   0.6666667), wk =   0.0164609
        k(   24) = (   0.0000000   0.8888889   0.0000000), wk =   0.0082305
        k(   25) = (   0.8888889   0.0000000   0.8888889), wk =   0.0164609
        k(   26) = (  -0.2222222   0.4444444   0.0000000), wk =   0.0329218
        k(   27) = (  -0.3333333   0.5555556  -0.1111111), wk =   0.0658436
        k(   28) = (   0.5555556  -0.3333333   0.7777778), wk =   0.0658436
        k(   29) = (  -0.2222222   0.6666667   0.0000000), wk =   0.0329218
        k(   30) = (   0.6666667  -0.2222222   0.8888889), wk =   0.0658436
        k(   31) = (   0.5555556  -0.1111111   0.7777778), wk =   0.0658436
        k(   32) = (   0.4444444   0.0000000   0.6666667), wk =   0.0329218
        k(   33) = (   0.7777778  -0.1111111   1.0000000), wk =   0.0329218
        k(   34) = (   0.6666667  -0.0000000   0.8888889), wk =   0.0329218
        k(   35) = (   0.5555556  -0.1111111   1.0000000), wk =   0.0329218

     Dense  grid:     1363 G-vectors     FFT dimensions: (  15,  15,  15)

     Estimated max dynamical RAM per process >      13.08 MB

     Check: negative core charge=   -0.000066

     Initial potential from superposition of free atoms

     starting charge       9.9999, renormalised to      10.0000

     negative rho (up, down):  1.999E-04 0.000E+00
     Starting wfcs are   12 randomized atomic wfcs

     total cpu time spent up to now is        0.4 secs

     Self-consistent Calculation

     iteration #  1     ecut=    20.00 Ry     beta= 0.70
     Davidson diagonalization with overlap
     ethr =  1.00E-02,  avg # of iterations =  2.0

     Threshold (ethr) on eigenvalues was too large:
     Diagonalizing with lowered threshold

     Davidson diagonalization with overlap
     ethr =  3.51E-05,  avg # of iterations =  6.5

     negative rho (up, down):  2.810E-04 0.000E+00

     total cpu time spent up to now is        0.9 secs

     total energy              =     -69.45142090 Ry
     estimated scf accuracy    <       0.00254642 Ry

     iteration #  2     ecut=    20.00 Ry     beta= 0.70
     Davidson diagonalization with overlap
     ethr =  2.55E-05,  avg # of iterations =  2.2

     negative rho (up, down):  3.036E-04 0.000E+00

     total cpu time spent up to now is        1.2 secs

     total energy              =     -69.45203012 Ry
     estimated scf accuracy    <       0.00031417 Ry

     iteration #  3     ecut=    20.00 Ry     beta= 0.70
     Davidson diagonalization with overlap
     ethr =  3.14E-06,  avg # of iterations =  2.5

     negative rho (up, down):  3.205E-04 0.000E+00

     total cpu time spent up to now is        1.4 secs

     total energy              =     -69.45210641 Ry
     estimated scf accuracy    <       0.00001072 Ry

     iteration #  4     ecut=    20.00 Ry     beta= 0.70
     Davidson diagonalization with overlap
     ethr =  1.07E-07,  avg # of iterations =  6.1

     negative rho (up, down):  3.204E-04 0.000E+00

     total cpu time spent up to now is        1.7 secs

     total energy              =     -69.45211942 Ry
     estimated scf accuracy    <       0.00000221 Ry

     iteration #  5     ecut=    20.00 Ry     beta= 0.70
     Davidson diagonalization with overlap
     ethr =  2.21E-08,  avg # of iterations =  3.8

     negative rho (up, down):  3.205E-04 0.000E+00

     total cpu time spent up to now is        2.0 secs

     total energy              =     -69.45212033 Ry
     estimated scf accuracy    <       0.00000016 Ry

     iteration #  6     ecut=    20.00 Ry     beta= 0.70
     Davidson diagonalization with overlap
     ethr =  1.63E-09,  avg # of iterations =  4.7

     negative rho (up, down):  3.205E-04 0.000E+00

     total cpu time spent up to now is        2.2 secs

     total energy              =     -69.45212040 Ry
     estimated scf accuracy    <       0.00000004 Ry

     iteration #  7     ecut=    20.00 Ry     beta= 0.70
     Davidson diagonalization with overlap
     ethr =  3.75E-10,  avg # of iterations =  3.6

     negative rho (up, down):  3.205E-04 0.000E+00

     total cpu time spent up to now is        2.5 secs

     total energy              =     -69.45212041 Ry
     estimated scf accuracy    <       0.00000003 Ry

     iteration #  8     ecut=    20.00 Ry     beta= 0.70
     Davidson diagonalization with overlap
     ethr =  2.76E-10,  avg # of iterations =  2.2

     negative rho (up, down):  3.205E-04 0.000E+00

     total cpu time spent up to now is        2.7 secs

     End of self-consistent calculation

          k = 0.0000 0.0000 0.0000 (   169 PWs)   bands (ev):

     5.8670   5.8670  11.4221  11.4221  11.4221  11.4221  12.4370  12.4370
    13.9020  13.9020

          k =-0.1111 0.1111-0.1111 (   169 PWs)   bands (ev):

     6.3051   6.3051  11.3922  11.3922  11.5041  11.5041  12.5285  12.5285
    13.7601  13.7601

          k =-0.2222 0.2222-0.2222 (   168 PWs)   bands (ev):

     7.4413   7.4413  11.3398  11.3398  11.5694  11.5694  12.7705  12.7705
    13.6582  13.6582

          k =-0.3333 0.3333-0.3333 (   171 PWs)   bands (ev):

     8.4666   8.4666  11.4404  11.4404  12.1114  12.1114  12.5800  12.5800
    14.2756  14.2756

          k =-0.4444 0.4444-0.4444 (   168 PWs)   bands (ev):

     8.7062   8.7062  11.2910  11.2910  12.3143  12.3143  14.1606  14.1606
    14.8758  14.8758

          k = 0.0000 0.2222 0.0000 (   169 PWs)   bands (ev):

     6.4531   6.4531  11.2597  11.2597  11.6351  11.6351  12.5858  12.5858
    13.6045  13.6045

          k =-0.1111 0.3333-0.1111 (   166 PWs)   bands (ev):

     7.3816   7.3816  11.0472  11.0472  11.7526  11.7526  12.8843  12.8843
    13.4493  13.4493

          k =-0.2222 0.4444-0.2222 (   163 PWs)   bands (ev):

     8.5684   8.5684  11.1969  11.1969  11.5996  11.5996  12.7741  12.7741
    14.1669  14.1669

          k =-0.3333 0.5556-0.3333 (   170 PWs)   bands (ev):

     9.0132   9.0132  11.2987  11.2987  12.2570  12.2570  12.7467  12.7467
    15.0808  15.0808

          k = 0.5556-0.3333 0.5556 (   168 PWs)   bands (ev):

     9.0518   9.0518  11.2365  11.2365  12.3055  12.3055  13.3327  13.3327
    15.0424  15.0424

          k = 0.4444-0.2222 0.4444 (   170 PWs)   bands (ev):

     8.9800   8.9800  11.3586  11.3586  12.1636  12.1636  12.5447  12.5447
    14.3390  14.3390

          k = 0.3333-0.1111 0.3333 (   166 PWs)   bands (ev):

     8.2264   8.2264  11.1453  11.1453  11.6544  11.6544  12.8431  12.8431
    13.5221  13.5221

          k = 0.2222-0.0000 0.2222 (   170 PWs)   bands (ev):

     6.9952   6.9952  11.2245  11.2245  11.6458  11.6458  12.7386  12.7386
    13.4818  13.4818

          k = 0.0000 0.4444 0.0000 (   169 PWs)   bands (ev):

     7.9854   7.9854  10.6405  10.6405  11.9895  11.9895  13.2883  13.2883
    13.3737  13.3737

          k =-0.1111 0.5556-0.1111 (   171 PWs)   bands (ev):

     8.9513   8.9513  10.3927  10.3927  11.8917  11.8917  13.4454  13.4454
    14.1813  14.1813

          k =-0.2222 0.6667-0.2222 (   175 PWs)   bands (ev):

     9.5334   9.5334  10.7041  10.7041  11.7402  11.7402  13.2584  13.2584
    15.1791  15.1791

          k = 0.6667-0.2222 0.6667 (   174 PWs)   bands (ev):

     9.7232   9.7232  10.9159  10.9159  12.0497  12.0497  13.0707  13.0707
    15.1034  15.1034

          k = 0.5556-0.1111 0.5556 (   170 PWs)   bands (ev):

     9.9020   9.9020  11.0450  11.0450  11.7750  11.7750  12.8927  12.8927
    14.3796  14.3796

          k = 0.4444 0.0000 0.4444 (   170 PWs)   bands (ev):

     9.4567   9.4567  10.9391  10.9391  11.5225  11.5225  12.9310  12.9310
    13.6063  13.6063

          k = 0.0000 0.6667 0.0000 (   174 PWs)   bands (ev):

     9.1343   9.1343   9.9214   9.9214  12.9388  12.9388  14.2736  14.2736
    14.2989  14.2989

          k =-0.1111 0.7778-0.1111 (   170 PWs)   bands (ev):

     9.3307   9.3307   9.8225   9.8225  13.1654  13.1654  14.3337  14.3337
    15.2744  15.2744

          k = 0.7778-0.1111 0.7778 (   176 PWs)   bands (ev):

     9.6113   9.6113  10.2258  10.2258  12.6789  12.6789  13.9987  13.9987
    15.2955  15.2955

          k = 0.6667-0.0000 0.6667 (   172 PWs)   bands (ev):

    10.0246  10.0246  10.7922  10.7922  11.9240  11.9240  13.5053  13.5053
    14.7525  14.7525

          k = 0.0000 0.8889 0.0000 (   178 PWs)   bands (ev):

     9.0325   9.0325   9.4804   9.4804  14.8243  14.8243  14.9336  14.9336
    15.9657  15.9657

          k = 0.8889 0.0000 0.8889 (   178 PWs)   bands (ev):

     9.1789   9.1789   9.6020   9.6020  14.1612  14.1612  14.7368  14.7368
    15.6719  15.6719

          k =-0.2222 0.4444 0.0000 (   166 PWs)   bands (ev):

     8.4209   8.4209  10.7720  10.7720  11.7148  11.7148  13.2423  13.2423
    13.4053  13.4053

          k =-0.3333 0.5556-0.1111 (   174 PWs)   bands (ev):

     9.4442   9.4442  10.9679  10.9679  11.4041  11.4041  13.0668  13.0668
    14.2269  14.2269

          k = 0.5556-0.3333 0.7778 (   170 PWs)   bands (ev):

     9.6272   9.6272  11.0211  11.0211  12.0094  12.0094  12.9308  12.9308
    14.9443  14.9443

          k =-0.2222 0.6667 0.0000 (   172 PWs)   bands (ev):

     9.5801   9.5801  10.1858  10.1858  11.9248  11.9248  14.1207  14.1207
    14.3616  14.3616

          k = 0.6667-0.2222 0.8889 (   172 PWs)   bands (ev):

     9.9229   9.9229  10.4774  10.4774  11.7780  11.7780  13.8143  13.8143
    15.0760  15.0760

          k = 0.5556-0.1111 0.7778 (   174 PWs)   bands (ev):

    10.2318  10.2318  10.6899  10.6899  11.6515  11.6515  13.4592  13.4592
    14.9993  14.9993

          k = 0.4444 0.0000 0.6667 (   175 PWs)   bands (ev):

    10.4374  10.4374  10.7739  10.7739  11.0857  11.0857  13.4552  13.4552
    14.4098  14.4098

          k = 0.7778-0.1111 1.0000 (   171 PWs)   bands (ev):

     9.4415   9.4415   9.8123   9.8123  13.1909  13.1909  14.5577  14.5577
    15.4828  15.4828

          k = 0.6667-0.0000 0.8889 (   176 PWs)   bands (ev):

     9.8060   9.8060  10.2792  10.2792  12.4062  12.4062  13.9798  13.9798
    15.4334  15.4334

          k = 0.5556-0.1111 1.0000 (   175 PWs)   bands (ev):

    10.2071  10.2071  10.7644  10.7644  11.4369  11.4369  13.6731  13.6731
    15.3985  15.3985

     highest occupied level (ev):    15.9657

!    total energy              =     -69.45212042 Ry
     estimated scf accuracy    <          4.0E-10 Ry

     The total energy is the sum of the following terms:
     one-electron contribution =      14.28183120 Ry
     hartree contribution      =       4.40363547 Ry
     xc contribution           =     -28.43886213 Ry
     ewald contribution        =     -59.69872495 Ry

     convergence has been achieved in   8 iterations

     negative rho (up, down):  3.205E-04 0.000E+00

     Forces acting on atoms (cartesian axes, Ry/au):

     atom    1 type  1   force =     0.00000000    0.00000000    0.00000000

     Total force =     0.000000     Total SCF correction =     0.000000


     Computing stress (Cartesian axis) and pressure


     negative rho (up, down):  3.205E-04 0.000E+00
          total   stress  (Ry/bohr**3)                   (kbar)     P=     -180.18
  -0.00122481  -0.00000000  -0.00000000         -180.18       -0.00       -0.00
  -0.00000000  -0.00122481   0.00000000           -0.00     -180.18        0.00
  -0.00000000   0.00000000  -0.00122481           -0.00        0.00     -180.18


     Writing all to output data dir ./platinum.save/ :
     XML data file, charge density, pseudopotentials, collected wavefunctions

     init_run     :      0.25s CPU      0.28s WALL (       1 calls)
     electrons    :      2.06s CPU      2.30s WALL (       1 calls)
     forces       :      0.04s CPU      0.04s WALL (       1 calls)
     stress       :      0.18s CPU      0.18s WALL (       1 calls)

     Called by init_run:
     wfcinit      :      0.07s CPU      0.08s WALL (       1 calls)
     potinit      :      0.01s CPU      0.01s WALL (       1 calls)
     hinit0       :      0.16s CPU      0.18s WALL (       1 calls)

     Called by electrons:
     c_bands      :      1.63s CPU      1.84s WALL (       9 calls)
     sum_band     :      0.33s CPU      0.36s WALL (       9 calls)
     v_of_rho     :      0.00s CPU      0.00s WALL (       9 calls)
     newd         :      0.10s CPU      0.11s WALL (       9 calls)
     mix_rho      :      0.00s CPU      0.00s WALL (       9 calls)

     Called by c_bands:
     init_us_2    :      0.03s CPU      0.03s WALL (     735 calls)
     cegterg      :      1.52s CPU      1.72s WALL (     315 calls)

     Called by *egterg:
     cdiaghg      :      0.10s CPU      0.11s WALL (    1458 calls)
     h_psi        :      0.88s CPU      1.00s WALL (    1528 calls)
     s_psi        :      0.15s CPU      0.17s WALL (    1528 calls)
     g_psi        :      0.01s CPU      0.02s WALL (    1178 calls)

     Called by h_psi:
     h_psi:calbec :      0.12s CPU      0.13s WALL (    1528 calls)
     vloc_psi     :      0.60s CPU      0.69s WALL (    1528 calls)
     add_vuspsi   :      0.14s CPU      0.16s WALL (    1528 calls)

     General routines
     calbec       :      0.16s CPU      0.18s WALL (    2018 calls)
     fft          :      0.02s CPU      0.03s WALL (      99 calls)
     ffts         :      0.00s CPU      0.00s WALL (      36 calls)
     fftw         :      0.45s CPU      0.52s WALL (   51444 calls)

     Parallel routines

     PWSCF        :      2.62s CPU      2.91s WALL


   This run was terminated on:  22: 2:10   4Nov2024            

=------------------------------------------------------------------------------=
   JOB DONE.
=------------------------------------------------------------------------------=
