
     Program PWSCF v.7.3.1 starts on  4Nov2024 at 22: 2: 4 

     This program is part of the open-source Quantum ESPRESSO suite
     for quantum simulation of materials; please cite
         "P. Giannozzi et al., J. Phys.:Condens. Matter 21 395502 (2009);
         "P. Giannozzi et al., J. Phys.:Condens. Matter 29 465901 (2017);
         "P. Giannozzi et al., J. Chem. Phys. 152 154105 (2020);
          URL http://www.quantum-espresso.org", 
     in publications or presentations arising from this work. More details at
     http://www.quantum-espresso.org/quote

     Parallel version (MPI), running on     1 processors

     MPI processes distributed on     1 nodes
     11834 MiB available memory on the printing compute node when the environment starts

     Waiting for input...
     Reading input from standard input

     Current dimensions of program PWSCF are:
     Max number of different atomic species (ntypx) = 10
     Max number of k-points (npk) =  40000
     Max angular momentum in pseudopotentials (lmaxx) =  4

     Subspace diagonalization in iterative solution of the eigenvalue problem:
     a serial algorithm will be used


     G-vector sticks info
     --------------------
     sticks:   dense  smooth     PW     G-vecs:    dense   smooth      PW
     Sum         163     163     61                 1363     1363     331

     Using Slab Decomposition



     bravais-lattice index     =            2
     lattice parameter (alat)  =       7.6600  a.u.
     unit-cell volume          =     112.3638 (a.u.)^3
     number of atoms/cell      =            1
     number of atomic types    =            1
     number of electrons       =        10.00
     number of Kohn-Sham states=           10
     kinetic-energy cutoff     =      20.0000  Ry
     charge density cutoff     =      80.0000  Ry
     scf convergence threshold =      1.0E-08
     mixing beta               =       0.7000
     number of iterations used =            8  plain     mixing
     Exchange-correlation=  SLA  PZ   NOGX NOGC
                           (   1   1   0   0   0   0   0)
     Non magnetic calculation with spin-orbit


     celldm(1)=   7.660000  celldm(2)=   0.000000  celldm(3)=   0.000000
     celldm(4)=   0.000000  celldm(5)=   0.000000  celldm(6)=   0.000000

     crystal axes: (cart. coord. in units of alat)
               a(1) = (  -0.500000   0.000000   0.500000 )  
               a(2) = (   0.000000   0.500000   0.500000 )  
               a(3) = (  -0.500000   0.500000   0.000000 )  

     reciprocal axes: (cart. coord. in units 2 pi/alat)
               b(1) = ( -1.000000 -1.000000  1.000000 )  
               b(2) = (  1.000000  1.000000  1.000000 )  
               b(3) = ( -1.000000  1.000000 -1.000000 )  


     PseudoPot. # 1 for Pt read from file:
     /home/dashlander/Desktop/Sem7/CPD/Assignment_3/pseudo/Pt.rel-pz-n-rrkjus.UPF
     MD5 check sum: 4baafe8ec1942611396c7a5466f52249
     Pseudo is Ultrasoft + core correction, Zval = 10.0
     Generated by new atomic code, or converted to UPF format
     Using radial grid of 1277 points,  6 beta functions with: 
                l(1) =   2
                l(2) =   2
                l(3) =   2
                l(4) =   2
                l(5) =   1
                l(6) =   1
     Q(r) pseudized with 0 coefficients 


     atomic species   valence    mass     pseudopotential
     Pt               10.00   195.08400     Pt( 1.00)

     48 Sym. Ops., with inversion, found



   Cartesian axes

     site n.     atom                  positions (alat units)
         1        Pt     tau(   1) = (   0.0000000   0.0000000   0.0000000  )

     number of k points=    35
                       cart. coord. in units 2pi/alat
        k(    1) = (   0.0000000   0.0000000   0.0000000), wk =   0.0013717
        k(    2) = (  -0.1111111   0.1111111  -0.1111111), wk =   0.0109739
        k(    3) = (  -0.2222222   0.2222222  -0.2222222), wk =   0.0109739
        k(    4) = (  -0.3333333   0.3333333  -0.3333333), wk =   0.0109739
        k(    5) = (  -0.4444444   0.4444444  -0.4444444), wk =   0.0109739
        k(    6) = (   0.0000000   0.2222222   0.0000000), wk =   0.0082305
        k(    7) = (  -0.1111111   0.3333333  -0.1111111), wk =   0.0329218
        k(    8) = (  -0.2222222   0.4444444  -0.2222222), wk =   0.0329218
        k(    9) = (  -0.3333333   0.5555556  -0.3333333), wk =   0.0329218
        k(   10) = (   0.5555556  -0.3333333   0.5555556), wk =   0.0329218
        k(   11) = (   0.4444444  -0.2222222   0.4444444), wk =   0.0329218
        k(   12) = (   0.3333333  -0.1111111   0.3333333), wk =   0.0329218
        k(   13) = (   0.2222222  -0.0000000   0.2222222), wk =   0.0164609
        k(   14) = (   0.0000000   0.4444444   0.0000000), wk =   0.0082305
        k(   15) = (  -0.1111111   0.5555556  -0.1111111), wk =   0.0329218
        k(   16) = (  -0.2222222   0.6666667  -0.2222222), wk =   0.0329218
        k(   17) = (   0.6666667  -0.2222222   0.6666667), wk =   0.0329218
        k(   18) = (   0.5555556  -0.1111111   0.5555556), wk =   0.0329218
        k(   19) = (   0.4444444   0.0000000   0.4444444), wk =   0.0164609
        k(   20) = (   0.0000000   0.6666667   0.0000000), wk =   0.0082305
        k(   21) = (  -0.1111111   0.7777778  -0.1111111), wk =   0.0329218
        k(   22) = (   0.7777778  -0.1111111   0.7777778), wk =   0.0329218
        k(   23) = (   0.6666667  -0.0000000   0.6666667), wk =   0.0164609
        k(   24) = (   0.0000000   0.8888889   0.0000000), wk =   0.0082305
        k(   25) = (   0.8888889   0.0000000   0.8888889), wk =   0.0164609
        k(   26) = (  -0.2222222   0.4444444   0.0000000), wk =   0.0329218
        k(   27) = (  -0.3333333   0.5555556  -0.1111111), wk =   0.0658436
        k(   28) = (   0.5555556  -0.3333333   0.7777778), wk =   0.0658436
        k(   29) = (  -0.2222222   0.6666667   0.0000000), wk =   0.0329218
        k(   30) = (   0.6666667  -0.2222222   0.8888889), wk =   0.0658436
        k(   31) = (   0.5555556  -0.1111111   0.7777778), wk =   0.0658436
        k(   32) = (   0.4444444   0.0000000   0.6666667), wk =   0.0329218
        k(   33) = (   0.7777778  -0.1111111   1.0000000), wk =   0.0329218
        k(   34) = (   0.6666667  -0.0000000   0.8888889), wk =   0.0329218
        k(   35) = (   0.5555556  -0.1111111   1.0000000), wk =   0.0329218

     Dense  grid:     1363 G-vectors     FFT dimensions: (  15,  15,  15)

     Estimated max dynamical RAM per process >      13.07 MB

     Check: negative core charge=   -0.000062

     Initial potential from superposition of free atoms

     starting charge       9.9999, renormalised to      10.0000

     negative rho (up, down):  1.842E-04 0.000E+00
     Starting wfcs are   12 randomized atomic wfcs

     total cpu time spent up to now is        0.4 secs

     Self-consistent Calculation

     iteration #  1     ecut=    20.00 Ry     beta= 0.70
     Davidson diagonalization with overlap
     ethr =  1.00E-02,  avg # of iterations =  2.0

     Threshold (ethr) on eigenvalues was too large:
     Diagonalizing with lowered threshold

     Davidson diagonalization with overlap
     ethr =  3.51E-05,  avg # of iterations =  6.7

     negative rho (up, down):  2.658E-04 0.000E+00

     total cpu time spent up to now is        1.0 secs

     total energy              =     -69.45235241 Ry
     estimated scf accuracy    <       0.00265800 Ry

     iteration #  2     ecut=    20.00 Ry     beta= 0.70
     Davidson diagonalization with overlap
     ethr =  2.66E-05,  avg # of iterations =  2.3

     negative rho (up, down):  2.884E-04 0.000E+00

     total cpu time spent up to now is        1.2 secs

     total energy              =     -69.45299361 Ry
     estimated scf accuracy    <       0.00032894 Ry

     iteration #  3     ecut=    20.00 Ry     beta= 0.70
     Davidson diagonalization with overlap
     ethr =  3.29E-06,  avg # of iterations =  2.3

     negative rho (up, down):  3.053E-04 0.000E+00

     total cpu time spent up to now is        1.4 secs

     total energy              =     -69.45306440 Ry
     estimated scf accuracy    <       0.00001054 Ry

     iteration #  4     ecut=    20.00 Ry     beta= 0.70
     Davidson diagonalization with overlap
     ethr =  1.05E-07,  avg # of iterations =  6.5

     negative rho (up, down):  3.054E-04 0.000E+00

     total cpu time spent up to now is        1.7 secs

     total energy              =     -69.45307971 Ry
     estimated scf accuracy    <       0.00000255 Ry

     iteration #  5     ecut=    20.00 Ry     beta= 0.70
     Davidson diagonalization with overlap
     ethr =  2.55E-08,  avg # of iterations =  3.3

     negative rho (up, down):  3.055E-04 0.000E+00

     total cpu time spent up to now is        2.0 secs

     End of self-consistent calculation

          k = 0.0000 0.0000 0.0000 (   169 PWs)   bands (ev):

     5.9672   5.9672  11.5631  11.5631  11.5631  11.5631  12.5763  12.5763
    14.0628  14.0628

          k =-0.1111 0.1111-0.1111 (   169 PWs)   bands (ev):

     6.4084   6.4084  11.5318  11.5318  11.6467  11.6467  12.6690  12.6690
    13.9193  13.9193

          k =-0.2222 0.2222-0.2222 (   168 PWs)   bands (ev):

     7.5515   7.5515  11.4762  11.4762  11.7133  11.7133  12.9137  12.9137
    13.8179  13.8179

          k =-0.3333 0.3333-0.3333 (   171 PWs)   bands (ev):

     8.5784   8.5784  11.5819  11.5819  12.2545  12.2545  12.7205  12.7205
    14.4440  14.4440

          k =-0.4444 0.4444-0.4444 (   168 PWs)   bands (ev):

     8.8156   8.8156  11.4300  11.4300  12.4526  12.4526  14.3147  14.3147
    15.0499  15.0499

          k = 0.0000 0.2222 0.0000 (   169 PWs)   bands (ev):

     6.5575   6.5575  11.3972  11.3972  11.7795  11.7795  12.7277  12.7277
    13.7597  13.7597

          k =-0.1111 0.3333-0.1111 (   166 PWs)   bands (ev):

     7.4920   7.4920  11.1801  11.1801  11.8986  11.8986  13.0301  13.0301
    13.6033  13.6033

          k =-0.2222 0.4444-0.2222 (   163 PWs)   bands (ev):

     8.6832   8.6832  11.3314  11.3314  11.7405  11.7405  12.9177  12.9177
    14.3333  14.3333

          k =-0.3333 0.5556-0.3333 (   169 PWs)   bands (ev):

     9.1262   9.1262  11.4367  11.4367  12.3980  12.3980  12.8895  12.8895
    15.2601  15.2601

          k = 0.5556-0.3333 0.5556 (   166 PWs)   bands (ev):

     9.1641   9.1641  11.3736  11.3736  12.4448  12.4448  13.4814  13.4814
    15.2211  15.2211

          k = 0.4444-0.2222 0.4444 (   169 PWs)   bands (ev):

     9.0941   9.0941  11.4983  11.4983  12.3048  12.3048  12.6853  12.6853
    14.5065  14.5065

          k = 0.3333-0.1111 0.3333 (   166 PWs)   bands (ev):

     8.3410   8.3410  11.2790  11.2790  11.7978  11.7978  12.9875  12.9875
    13.6780  13.6780

          k = 0.2222-0.0000 0.2222 (   164 PWs)   bands (ev):

     7.1038   7.1038  11.3603  11.3603  11.7906  11.7906  12.8822  12.8822
    13.6369  13.6369

          k = 0.0000 0.4444 0.0000 (   165 PWs)   bands (ev):

     8.0993   8.0993  10.7672  10.7672  12.1386  12.1386  13.4420  13.4420
    13.5244  13.5244

          k =-0.1111 0.5556-0.1111 (   169 PWs)   bands (ev):

     9.0683   9.0683  10.5157  10.5157  12.0358  12.0358  13.5999  13.5999
    14.3483  14.3483

          k =-0.2222 0.6667-0.2222 (   167 PWs)   bands (ev):

     9.6501   9.6501  10.8304  10.8304  11.8797  11.8797  13.4108  13.4108
    15.3625  15.3625

          k = 0.6667-0.2222 0.6667 (   174 PWs)   bands (ev):

     9.8408   9.8408  11.0450  11.0450  12.1894  12.1894  13.2194  13.2194
    15.2822  15.2822

          k = 0.5556-0.1111 0.5556 (   170 PWs)   bands (ev):

    10.0231  10.0231  11.1775  11.1775  11.9093  11.9093  13.0411  13.0411
    14.5469  14.5469

          k = 0.4444 0.0000 0.4444 (   166 PWs)   bands (ev):

     9.5788   9.5788  11.0697  11.0697  11.6596  11.6596  13.0798  13.0798
    13.7618  13.7618

          k = 0.0000 0.6667 0.0000 (   170 PWs)   bands (ev):

     9.2473   9.2473  10.0382  10.0382  13.0943  13.0943  14.4442  14.4442
    14.4645  14.4645

          k =-0.1111 0.7778-0.1111 (   170 PWs)   bands (ev):

     9.4420   9.4420   9.9381   9.9381  13.3196  13.3196  14.5021  14.5021
    15.4546  15.4546

          k = 0.7778-0.1111 0.7778 (   175 PWs)   bands (ev):

     9.7246   9.7246  10.3460  10.3460  12.8257  12.8257  14.1627  14.1627
    15.4757  15.4757

          k = 0.6667-0.0000 0.6667 (   172 PWs)   bands (ev):

    10.1437  10.1437  10.9202  10.9202  12.0600  12.0600  13.6632  13.6632
    14.9243  14.9243

          k = 0.0000 0.8889 0.0000 (   178 PWs)   bands (ev):

     9.1393   9.1393   9.5919   9.5919  15.0035  15.0035  15.1141  15.1141
    16.1502  16.1502

          k = 0.8889 0.0000 0.8889 (   178 PWs)   bands (ev):

     9.2867   9.2867   9.7150   9.7150  14.3261  14.3261  14.9135  14.9135
    15.8540  15.8540

          k =-0.2222 0.4444 0.0000 (   166 PWs)   bands (ev):

     8.5372   8.5372  10.9002  10.9002  11.8580  11.8580  13.3927  13.3927
    13.5602  13.5602

          k =-0.3333 0.5556-0.1111 (   166 PWs)   bands (ev):

     9.5640   9.5640  11.0991  11.0991  11.5389  11.5389  13.2167  13.2167
    14.3938  14.3938

          k = 0.5556-0.3333 0.7778 (   170 PWs)   bands (ev):

     9.7450   9.7450  11.1523  11.1523  12.1487  12.1487  13.0767  13.0767
    15.1207  15.1207

          k =-0.2222 0.6667 0.0000 (   172 PWs)   bands (ev):

     9.6974   9.6974  10.3060  10.3060  12.0662  12.0662  14.2859  14.2859
    14.5291  14.5291

          k = 0.6667-0.2222 0.8889 (   168 PWs)   bands (ev):

    10.0411  10.0411  10.6008  10.6008  11.9155  11.9155  13.9745  13.9745
    15.2548  15.2548

          k = 0.5556-0.1111 0.7778 (   174 PWs)   bands (ev):

    10.3541  10.3541  10.8157  10.8157  11.7858  11.7858  13.6139  13.6139
    15.1760  15.1760

          k = 0.4444 0.0000 0.6667 (   169 PWs)   bands (ev):

    10.5656  10.5656  10.9031  10.9031  11.2109  11.2109  13.6111  13.6111
    14.5788  14.5788

          k = 0.7778-0.1111 1.0000 (   171 PWs)   bands (ev):

     9.5524   9.5524   9.9280   9.9280  13.3440  13.3440  14.7297  14.7297
    15.6643  15.6643

          k = 0.6667-0.0000 0.8889 (   176 PWs)   bands (ev):

     9.9208   9.9208  10.4005  10.4005  12.5495  12.5495  14.1427  14.1427
    15.6157  15.6157

          k = 0.5556-0.1111 1.0000 (   166 PWs)   bands (ev):

    10.3265  10.3265  10.8929  10.8929  11.5681  11.5681  13.8308  13.8308
    15.5822  15.5822

     highest occupied level (ev):    16.1502

!    total energy              =     -69.45308052 Ry
     estimated scf accuracy    <          7.0E-09 Ry

     The total energy is the sum of the following terms:
     one-electron contribution =      14.49243106 Ry
     hartree contribution      =       4.35566051 Ry
     xc contribution           =     -28.44657579 Ry
     ewald contribution        =     -59.85459629 Ry

     convergence has been achieved in   5 iterations

     negative rho (up, down):  3.055E-04 0.000E+00

     Forces acting on atoms (cartesian axes, Ry/au):

     atom    1 type  1   force =     0.00000000    0.00000000    0.00000000

     Total force =     0.000000     Total SCF correction =     0.000000


     Computing stress (Cartesian axis) and pressure


     negative rho (up, down):  3.055E-04 0.000E+00
          total   stress  (Ry/bohr**3)                   (kbar)     P=     -167.13
  -0.00113616  -0.00000000  -0.00000000         -167.13       -0.00       -0.00
  -0.00000000  -0.00113616   0.00000000           -0.00     -167.13        0.00
  -0.00000000   0.00000000  -0.00113616           -0.00        0.00     -167.13


     Writing all to output data dir ./platinum.save/ :
     XML data file, charge density, pseudopotentials, collected wavefunctions

     init_run     :      0.23s CPU      0.28s WALL (       1 calls)
     electrons    :      1.41s CPU      1.59s WALL (       1 calls)
     forces       :      0.04s CPU      0.04s WALL (       1 calls)
     stress       :      0.17s CPU      0.17s WALL (       1 calls)

     Called by init_run:
     wfcinit      :      0.05s CPU      0.08s WALL (       1 calls)
     potinit      :      0.01s CPU      0.01s WALL (       1 calls)
     hinit0       :      0.16s CPU      0.18s WALL (       1 calls)

     Called by electrons:
     c_bands      :      1.11s CPU      1.29s WALL (       6 calls)
     sum_band     :      0.23s CPU      0.24s WALL (       6 calls)
     v_of_rho     :      0.00s CPU      0.00s WALL (       6 calls)
     newd         :      0.06s CPU      0.07s WALL (       6 calls)
     mix_rho      :      0.00s CPU      0.00s WALL (       6 calls)

     Called by c_bands:
     init_us_2    :      0.02s CPU      0.02s WALL (     525 calls)
     cegterg      :      1.05s CPU      1.21s WALL (     210 calls)

     Called by *egterg:
     cdiaghg      :      0.07s CPU      0.08s WALL (     981 calls)
     h_psi        :      0.61s CPU      0.72s WALL (    1051 calls)
     s_psi        :      0.10s CPU      0.12s WALL (    1051 calls)
     g_psi        :      0.01s CPU      0.01s WALL (     806 calls)

     Called by h_psi:
     h_psi:calbec :      0.08s CPU      0.09s WALL (    1051 calls)
     vloc_psi     :      0.42s CPU      0.49s WALL (    1051 calls)
     add_vuspsi   :      0.10s CPU      0.12s WALL (    1051 calls)

     General routines
     calbec       :      0.12s CPU      0.13s WALL (    1436 calls)
     fft          :      0.02s CPU      0.03s WALL (      69 calls)
     ffts         :      0.00s CPU      0.00s WALL (      24 calls)
     fftw         :      0.31s CPU      0.37s WALL (   36084 calls)

     Parallel routines

     PWSCF        :      1.96s CPU      2.20s WALL


   This run was terminated on:  22: 2: 6   4Nov2024            

=------------------------------------------------------------------------------=
   JOB DONE.
=------------------------------------------------------------------------------=
