
     Program PWSCF v.7.3.1 starts on  4Nov2024 at 13:51:41 

     This program is part of the open-source Quantum ESPRESSO suite
     for quantum simulation of materials; please cite
         "P. Giannozzi et al., J. Phys.:Condens. Matter 21 395502 (2009);
         "P. Giannozzi et al., J. Phys.:Condens. Matter 29 465901 (2017);
         "P. Giannozzi et al., J. Chem. Phys. 152 154105 (2020);
          URL http://www.quantum-espresso.org", 
     in publications or presentations arising from this work. More details at
     http://www.quantum-espresso.org/quote

     Parallel version (MPI), running on     1 processors

     MPI processes distributed on     1 nodes
     14405 MiB available memory on the printing compute node when the environment starts

     Waiting for input...
     Reading input from standard input

     Current dimensions of program PWSCF are:
     Max number of different atomic species (ntypx) = 10
     Max number of k-points (npk) =  40000
     Max angular momentum in pseudopotentials (lmaxx) =  4

     Subspace diagonalization in iterative solution of the eigenvalue problem:
     a serial algorithm will be used


     G-vector sticks info
     --------------------
     sticks:   dense  smooth     PW     G-vecs:    dense   smooth      PW
     Sum         151     151     61                 1243     1243     307

     Using Slab Decomposition



     bravais-lattice index     =            2
     lattice parameter (alat)  =       7.3700  a.u.
     unit-cell volume          =     100.0789 (a.u.)^3
     number of atoms/cell      =            1
     number of atomic types    =            1
     number of electrons       =        10.00
     number of Kohn-Sham states=           10
     kinetic-energy cutoff     =      20.0000  Ry
     charge density cutoff     =      80.0000  Ry
     scf convergence threshold =      1.0E-08
     mixing beta               =       0.7000
     number of iterations used =            8  plain     mixing
     Exchange-correlation=  SLA  PZ   NOGX NOGC
                           (   1   1   0   0   0   0   0)
     Non magnetic calculation with spin-orbit


     celldm(1)=   7.370000  celldm(2)=   0.000000  celldm(3)=   0.000000
     celldm(4)=   0.000000  celldm(5)=   0.000000  celldm(6)=   0.000000

     crystal axes: (cart. coord. in units of alat)
               a(1) = (  -0.500000   0.000000   0.500000 )  
               a(2) = (   0.000000   0.500000   0.500000 )  
               a(3) = (  -0.500000   0.500000   0.000000 )  

     reciprocal axes: (cart. coord. in units 2 pi/alat)
               b(1) = ( -1.000000 -1.000000  1.000000 )  
               b(2) = (  1.000000  1.000000  1.000000 )  
               b(3) = ( -1.000000  1.000000 -1.000000 )  


     PseudoPot. # 1 for Pt read from file:
     /home/dashlander/Desktop/Sem7/CPD/Assignment_3/pseudo/Pt.rel-pz-n-rrkjus.UPF
     MD5 check sum: 4baafe8ec1942611396c7a5466f52249
     Pseudo is Ultrasoft + core correction, Zval = 10.0
     Generated by new atomic code, or converted to UPF format
     Using radial grid of 1277 points,  6 beta functions with: 
                l(1) =   2
                l(2) =   2
                l(3) =   2
                l(4) =   2
                l(5) =   1
                l(6) =   1
     Q(r) pseudized with 0 coefficients 


     atomic species   valence    mass     pseudopotential
     Pt               10.00   195.08400     Pt( 1.00)

     48 Sym. Ops., with inversion, found



   Cartesian axes

     site n.     atom                  positions (alat units)
         1        Pt     tau(   1) = (   0.0000000   0.0000000   0.0000000  )

     number of k points=    28
                       cart. coord. in units 2pi/alat
        k(    1) = (  -0.0833333   0.0833333   0.0833333), wk =   0.0092593
        k(    2) = (  -0.2500000   0.2500000  -0.0833333), wk =   0.0277778
        k(    3) = (  -0.4166667   0.4166667  -0.2500000), wk =   0.0277778
        k(    4) = (   0.4166667  -0.4166667   0.5833333), wk =   0.0277778
        k(    5) = (   0.2500000  -0.2500000   0.4166667), wk =   0.0277778
        k(    6) = (   0.0833333  -0.0833333   0.2500000), wk =   0.0277778
        k(    7) = (  -0.0833333   0.4166667   0.0833333), wk =   0.0277778
        k(    8) = (  -0.2500000   0.5833333  -0.0833333), wk =   0.0555556
        k(    9) = (   0.5833333  -0.2500000   0.7500000), wk =   0.0555556
        k(   10) = (   0.4166667  -0.0833333   0.5833333), wk =   0.0555556
        k(   11) = (   0.2500000   0.0833333   0.4166667), wk =   0.0555556
        k(   12) = (  -0.0833333   0.7500000   0.0833333), wk =   0.0277778
        k(   13) = (   0.7500000  -0.0833333   0.9166667), wk =   0.0555556
        k(   14) = (   0.5833333   0.0833333   0.7500000), wk =   0.0555556
        k(   15) = (   0.4166667   0.2500000   0.5833333), wk =   0.0555556
        k(   16) = (  -0.0833333  -0.9166667   0.0833333), wk =   0.0277778
        k(   17) = (  -0.2500000  -0.7500000  -0.0833333), wk =   0.0555556
        k(   18) = (  -0.0833333  -0.5833333   0.0833333), wk =   0.0277778
        k(   19) = (  -0.2500000   0.2500000   0.2500000), wk =   0.0092593
        k(   20) = (  -0.4166667   0.4166667   0.0833333), wk =   0.0277778
        k(   21) = (   0.4166667  -0.4166667   0.9166667), wk =   0.0277778
        k(   22) = (   0.2500000  -0.2500000   0.7500000), wk =   0.0277778
        k(   23) = (  -0.2500000   0.5833333   0.2500000), wk =   0.0277778
        k(   24) = (   0.5833333  -0.2500000   1.0833333), wk =   0.0555556
        k(   25) = (   0.4166667  -0.0833333   0.9166667), wk =   0.0555556
        k(   26) = (  -0.2500000  -1.0833333   0.2500000), wk =   0.0277778
        k(   27) = (  -0.4166667   0.4166667   0.4166667), wk =   0.0092593
        k(   28) = (   0.4166667  -0.4166667   1.2500000), wk =   0.0277778

     Dense  grid:     1243 G-vectors     FFT dimensions: (  15,  15,  15)

     Estimated max dynamical RAM per process >      11.67 MB

     Check: negative core charge=   -0.000029

     Initial potential from superposition of free atoms

     starting charge       9.9999, renormalised to      10.0000

     negative rho (up, down):  1.043E-04 0.000E+00
     Starting wfcs are   12 randomized atomic wfcs

     total cpu time spent up to now is        0.4 secs

     Self-consistent Calculation

     iteration #  1     ecut=    20.00 Ry     beta= 0.70
     Davidson diagonalization with overlap
     ethr =  1.00E-02,  avg # of iterations =  2.2

     Threshold (ethr) on eigenvalues was too large:
     Diagonalizing with lowered threshold

     Davidson diagonalization with overlap
     c_bands:  1 eigenvalues not converged
     ethr =  1.71E-05,  avg # of iterations =  8.4

     negative rho (up, down):  1.945E-04 0.000E+00

     total cpu time spent up to now is        0.8 secs

     total energy              =     -69.45530472 Ry
     estimated scf accuracy    <       0.00399328 Ry

     iteration #  2     ecut=    20.00 Ry     beta= 0.70
     Davidson diagonalization with overlap
     ethr =  3.99E-05,  avg # of iterations =  2.2

     negative rho (up, down):  2.191E-04 0.000E+00

     total cpu time spent up to now is        1.0 secs

     total energy              =     -69.45636634 Ry
     estimated scf accuracy    <       0.00048043 Ry

     iteration #  3     ecut=    20.00 Ry     beta= 0.70
     Davidson diagonalization with overlap
     ethr =  4.80E-06,  avg # of iterations =  2.1

     negative rho (up, down):  2.376E-04 0.000E+00

     total cpu time spent up to now is        1.2 secs

     total energy              =     -69.45644374 Ry
     estimated scf accuracy    <       0.00001417 Ry

     iteration #  4     ecut=    20.00 Ry     beta= 0.70
     Davidson diagonalization with overlap
     ethr =  1.42E-07,  avg # of iterations =  6.0

     negative rho (up, down):  2.378E-04 0.000E+00

     total cpu time spent up to now is        1.4 secs

     total energy              =     -69.45646419 Ry
     estimated scf accuracy    <       0.00000286 Ry

     iteration #  5     ecut=    20.00 Ry     beta= 0.70
     Davidson diagonalization with overlap
     ethr =  2.86E-08,  avg # of iterations =  3.6

     negative rho (up, down):  2.382E-04 0.000E+00

     total cpu time spent up to now is        1.6 secs

     total energy              =     -69.45646496 Ry
     estimated scf accuracy    <       0.00000007 Ry

     iteration #  6     ecut=    20.00 Ry     beta= 0.70
     Davidson diagonalization with overlap
     ethr =  6.87E-10,  avg # of iterations =  6.6

     negative rho (up, down):  2.383E-04 0.000E+00

     total cpu time spent up to now is        1.8 secs

     End of self-consistent calculation

          k =-0.0833 0.0833 0.0833 (   153 PWs)   bands (ev):

     7.8462   7.8462  13.7499  13.7499  13.8438  13.8438  14.8200  14.8200
    16.5063  16.5063

          k =-0.2500 0.2500-0.0833 (   154 PWs)   bands (ev):

     9.1903   9.1903  13.4490  13.4490  14.0731  14.0731  15.2231  15.2231
    16.0627  16.0627

          k =-0.4167 0.4167-0.2500 (   151 PWs)   bands (ev):

    10.6888  10.6888  13.7393  13.7393  14.6069  14.6069  14.8816  14.8816
    17.1818  17.1818

          k = 0.4167-0.4167 0.5833 (   155 PWs)   bands (ev):

    10.7562  10.7562  13.5675  13.5675  14.6042  14.6042  16.1193  16.1193
    18.1946  18.1946

          k = 0.2500-0.2500 0.4167 (   150 PWs)   bands (ev):

    10.4089  10.4089  13.7086  13.7086  13.9633  13.9633  15.0696  15.0696
    16.9702  16.9702

          k = 0.0833-0.0833 0.2500 (   155 PWs)   bands (ev):

     8.5581   8.5581  13.4919  13.4919  14.0839  14.0839  15.0747  15.0747
    16.1465  16.1465

          k =-0.0833 0.4167 0.0833 (   154 PWs)   bands (ev):

     9.8108   9.8108  12.9130  12.9130  14.3247  14.3247  15.6157  15.6157
    16.0473  16.0473

          k =-0.2500 0.5833-0.0833 (   148 PWs)   bands (ev):

    11.3913  11.3913  12.6433  12.6433  13.8766  13.8766  15.9954  15.9954
    17.1071  17.1071

          k = 0.5833-0.2500 0.7500 (   151 PWs)   bands (ev):

    11.7757  11.7757  13.0244  13.0244  14.2869  14.2869  15.5823  15.5823
    18.0801  18.0801

          k = 0.4167-0.0833 0.5833 (   150 PWs)   bands (ev):

    11.9053  11.9053  13.2460  13.2460  13.4934  13.4934  15.6203  15.6203
    16.9796  16.9796

          k = 0.2500 0.0833 0.4167 (   149 PWs)   bands (ev):

    10.3010  10.3010  13.1114  13.1114  14.0699  14.0699  15.4441  15.4441
    16.1964  16.1964

          k =-0.0833 0.7500 0.0833 (   151 PWs)   bands (ev):

    11.1270  11.1270  11.7156  11.7156  15.8380  15.8380  17.2343  17.2343
    18.0923  18.0923

          k = 0.7500-0.0833 0.9167 (   151 PWs)   bands (ev):

    11.3855  11.3855  11.8971  11.8971  15.5259  15.5259  17.2040  17.2040
    18.5638  18.5638

          k = 0.5833 0.0833 0.7500 (   150 PWs)   bands (ev):

    12.1579  12.1579  12.8528  12.8528  14.0069  14.0069  16.0865  16.0865
    17.8828  17.8828

          k = 0.4167 0.2500 0.5833 (   153 PWs)   bands (ev):

    11.1707  11.1707  13.4877  13.4877  14.5367  14.5367  15.1415  15.1415
    17.8243  17.8243

          k =-0.0833-0.9167 0.0833 (   150 PWs)   bands (ev):

    10.9128  10.9128  11.4180  11.4180  17.1455  17.1455  17.7973  17.7973
    18.7524  18.7524

          k =-0.2500-0.7500-0.0833 (   150 PWs)   bands (ev):

    11.5950  11.5950  12.1750  12.1750  14.5543  14.5543  16.8078  16.8078
    18.0224  18.0224

          k =-0.0833-0.5833 0.0833 (   149 PWs)   bands (ev):

    10.9672  10.9672  12.2545  12.2545  14.5458  14.5458  16.3289  16.3289
    16.9868  16.9868

          k =-0.2500 0.2500 0.2500 (   150 PWs)   bands (ev):

     9.6414   9.6414  13.6872  13.6872  13.9536  13.9536  15.1491  15.1491
    16.4727  16.4727

          k =-0.4167 0.4167 0.0833 (   149 PWs)   bands (ev):

    11.0960  11.0960  13.3005  13.3005  13.9149  13.9149  15.2679  15.2679
    16.3000  16.3000

          k = 0.4167-0.4167 0.9167 (   153 PWs)   bands (ev):

    12.1130  12.1130  13.1615  13.1615  13.9333  13.9333  15.5758  15.5758
    17.2650  17.2650

          k = 0.2500-0.2500 0.7500 (   149 PWs)   bands (ev):

    11.6036  11.6036  12.7341  12.7341  14.3257  14.3257  15.9773  15.9773
    18.3551  18.3551

          k =-0.2500 0.5833 0.2500 (   148 PWs)   bands (ev):

    11.2016  11.2016  13.3551  13.3551  13.8826  13.8826  15.3337  15.3337
    18.0232  18.0232

          k = 0.5833-0.2500 1.0833 (   152 PWs)   bands (ev):

    12.3337  12.3337  12.7898  12.7898  13.5177  13.5177  16.2461  16.2461
    17.8266  17.8266

          k = 0.4167-0.0833 0.9167 (   151 PWs)   bands (ev):

    12.0954  12.0954  12.7105  12.7105  13.9601  13.9601  16.3694  16.3694
    18.4810  18.4810

          k =-0.2500-1.0833 0.2500 (   150 PWs)   bands (ev):

    11.6058  11.6058  12.4064  12.4064  14.9362  14.9362  16.6277  16.6277
    18.1957  18.1957

          k =-0.4167 0.4167 0.4167 (   147 PWs)   bands (ev):

    10.5259  10.5259  13.6470  13.6470  14.6719  14.6719  16.1856  16.1856
    17.7340  17.7340

          k = 0.4167-0.4167 1.2500 (   153 PWs)   bands (ev):

    11.3570  11.3570  13.3411  13.3411  14.7113  14.7113  15.2798  15.2798
    17.8943  17.8943

     highest occupied level (ev):    18.7524

!    total energy              =     -69.45646511 Ry
     estimated scf accuracy    <          5.3E-09 Ry

     The total energy is the sum of the following terms:
     one-electron contribution =      17.64879354 Ry
     hartree contribution      =       3.68103411 Ry
     xc contribution           =     -28.57649526 Ry
     ewald contribution        =     -62.20979750 Ry

     convergence has been achieved in   6 iterations

     negative rho (up, down):  2.383E-04 0.000E+00

     Forces acting on atoms (cartesian axes, Ry/au):

     atom    1 type  1   force =     0.00000000    0.00000000    0.00000000

     Total force =     0.000000     Total SCF correction =     0.000000


     Computing stress (Cartesian axis) and pressure


     negative rho (up, down):  2.383E-04 0.000E+00
          total   stress  (Ry/bohr**3)                   (kbar)     P=      122.75
   0.00083442  -0.00000000   0.00000000          122.75       -0.00        0.00
  -0.00000000   0.00083442  -0.00000000           -0.00      122.75       -0.00
   0.00000000  -0.00000000   0.00083442            0.00       -0.00      122.75


     Writing all to output data dir ./platinum.save/ :
     XML data file, charge density, pseudopotentials, collected wavefunctions

     init_run     :      0.24s CPU      0.26s WALL (       1 calls)
     electrons    :      1.30s CPU      1.47s WALL (       1 calls)
     forces       :      0.03s CPU      0.03s WALL (       1 calls)
     stress       :      0.14s CPU      0.14s WALL (       1 calls)

     Called by init_run:
     wfcinit      :      0.05s CPU      0.06s WALL (       1 calls)
     potinit      :      0.01s CPU      0.01s WALL (       1 calls)
     hinit0       :      0.16s CPU      0.17s WALL (       1 calls)

     Called by electrons:
     c_bands      :      1.03s CPU      1.18s WALL (       7 calls)
     sum_band     :      0.20s CPU      0.22s WALL (       7 calls)
     v_of_rho     :      0.00s CPU      0.00s WALL (       7 calls)
     newd         :      0.08s CPU      0.08s WALL (       7 calls)
     mix_rho      :      0.00s CPU      0.00s WALL (       7 calls)

     Called by c_bands:
     init_us_2    :      0.02s CPU      0.02s WALL (     476 calls)
     cegterg      :      0.97s CPU      1.12s WALL (     196 calls)

     Called by *egterg:
     cdiaghg      :      0.07s CPU      0.08s WALL (    1039 calls)
     h_psi        :      0.58s CPU      0.67s WALL (    1095 calls)
     s_psi        :      0.09s CPU      0.10s WALL (    1095 calls)
     g_psi        :      0.01s CPU      0.01s WALL (     871 calls)

     Called by h_psi:
     h_psi:calbec :      0.07s CPU      0.08s WALL (    1095 calls)
     vloc_psi     :      0.41s CPU      0.47s WALL (    1095 calls)
     add_vuspsi   :      0.09s CPU      0.10s WALL (    1095 calls)

     General routines
     calbec       :      0.10s CPU      0.11s WALL (    1431 calls)
     fft          :      0.02s CPU      0.03s WALL (      79 calls)
     ffts         :      0.00s CPU      0.00s WALL (      28 calls)
     fftw         :      0.30s CPU      0.35s WALL (   35756 calls)

     Parallel routines

     PWSCF        :      1.80s CPU      2.00s WALL


   This run was terminated on:  13:51:43   4Nov2024            

=------------------------------------------------------------------------------=
   JOB DONE.
=------------------------------------------------------------------------------=
