
     Program PWSCF v.7.3.1 starts on  4Nov2024 at 22: 1:45 

     This program is part of the open-source Quantum ESPRESSO suite
     for quantum simulation of materials; please cite
         "P. Giannozzi et al., J. Phys.:Condens. Matter 21 395502 (2009);
         "P. Giannozzi et al., J. Phys.:Condens. Matter 29 465901 (2017);
         "P. Giannozzi et al., J. Chem. Phys. 152 154105 (2020);
          URL http://www.quantum-espresso.org", 
     in publications or presentations arising from this work. More details at
     http://www.quantum-espresso.org/quote

     Parallel version (MPI), running on     1 processors

     MPI processes distributed on     1 nodes
     11851 MiB available memory on the printing compute node when the environment starts

     Waiting for input...
     Reading input from standard input

     Current dimensions of program PWSCF are:
     Max number of different atomic species (ntypx) = 10
     Max number of k-points (npk) =  40000
     Max angular momentum in pseudopotentials (lmaxx) =  4

     Subspace diagonalization in iterative solution of the eigenvalue problem:
     a serial algorithm will be used


     G-vector sticks info
     --------------------
     sticks:   dense  smooth     PW     G-vecs:    dense   smooth      PW
     Sum         163     163     61                 1363     1363     331

     Using Slab Decomposition



     bravais-lattice index     =            2
     lattice parameter (alat)  =       7.5800  a.u.
     unit-cell volume          =     108.8799 (a.u.)^3
     number of atoms/cell      =            1
     number of atomic types    =            1
     number of electrons       =        10.00
     number of Kohn-Sham states=           10
     kinetic-energy cutoff     =      20.0000  Ry
     charge density cutoff     =      80.0000  Ry
     scf convergence threshold =      1.0E-08
     mixing beta               =       0.7000
     number of iterations used =            8  plain     mixing
     Exchange-correlation=  SLA  PZ   NOGX NOGC
                           (   1   1   0   0   0   0   0)
     Non magnetic calculation with spin-orbit


     celldm(1)=   7.580000  celldm(2)=   0.000000  celldm(3)=   0.000000
     celldm(4)=   0.000000  celldm(5)=   0.000000  celldm(6)=   0.000000

     crystal axes: (cart. coord. in units of alat)
               a(1) = (  -0.500000   0.000000   0.500000 )  
               a(2) = (   0.000000   0.500000   0.500000 )  
               a(3) = (  -0.500000   0.500000   0.000000 )  

     reciprocal axes: (cart. coord. in units 2 pi/alat)
               b(1) = ( -1.000000 -1.000000  1.000000 )  
               b(2) = (  1.000000  1.000000  1.000000 )  
               b(3) = ( -1.000000  1.000000 -1.000000 )  


     PseudoPot. # 1 for Pt read from file:
     /home/dashlander/Desktop/Sem7/CPD/Assignment_3/pseudo/Pt.rel-pz-n-rrkjus.UPF
     MD5 check sum: 4baafe8ec1942611396c7a5466f52249
     Pseudo is Ultrasoft + core correction, Zval = 10.0
     Generated by new atomic code, or converted to UPF format
     Using radial grid of 1277 points,  6 beta functions with: 
                l(1) =   2
                l(2) =   2
                l(3) =   2
                l(4) =   2
                l(5) =   1
                l(6) =   1
     Q(r) pseudized with 0 coefficients 


     atomic species   valence    mass     pseudopotential
     Pt               10.00   195.08400     Pt( 1.00)

     48 Sym. Ops., with inversion, found



   Cartesian axes

     site n.     atom                  positions (alat units)
         1        Pt     tau(   1) = (   0.0000000   0.0000000   0.0000000  )

     number of k points=    35
                       cart. coord. in units 2pi/alat
        k(    1) = (   0.0000000   0.0000000   0.0000000), wk =   0.0013717
        k(    2) = (  -0.1111111   0.1111111  -0.1111111), wk =   0.0109739
        k(    3) = (  -0.2222222   0.2222222  -0.2222222), wk =   0.0109739
        k(    4) = (  -0.3333333   0.3333333  -0.3333333), wk =   0.0109739
        k(    5) = (  -0.4444444   0.4444444  -0.4444444), wk =   0.0109739
        k(    6) = (   0.0000000   0.2222222   0.0000000), wk =   0.0082305
        k(    7) = (  -0.1111111   0.3333333  -0.1111111), wk =   0.0329218
        k(    8) = (  -0.2222222   0.4444444  -0.2222222), wk =   0.0329218
        k(    9) = (  -0.3333333   0.5555556  -0.3333333), wk =   0.0329218
        k(   10) = (   0.5555556  -0.3333333   0.5555556), wk =   0.0329218
        k(   11) = (   0.4444444  -0.2222222   0.4444444), wk =   0.0329218
        k(   12) = (   0.3333333  -0.1111111   0.3333333), wk =   0.0329218
        k(   13) = (   0.2222222  -0.0000000   0.2222222), wk =   0.0164609
        k(   14) = (   0.0000000   0.4444444   0.0000000), wk =   0.0082305
        k(   15) = (  -0.1111111   0.5555556  -0.1111111), wk =   0.0329218
        k(   16) = (  -0.2222222   0.6666667  -0.2222222), wk =   0.0329218
        k(   17) = (   0.6666667  -0.2222222   0.6666667), wk =   0.0329218
        k(   18) = (   0.5555556  -0.1111111   0.5555556), wk =   0.0329218
        k(   19) = (   0.4444444   0.0000000   0.4444444), wk =   0.0164609
        k(   20) = (   0.0000000   0.6666667   0.0000000), wk =   0.0082305
        k(   21) = (  -0.1111111   0.7777778  -0.1111111), wk =   0.0329218
        k(   22) = (   0.7777778  -0.1111111   0.7777778), wk =   0.0329218
        k(   23) = (   0.6666667  -0.0000000   0.6666667), wk =   0.0164609
        k(   24) = (   0.0000000   0.8888889   0.0000000), wk =   0.0082305
        k(   25) = (   0.8888889   0.0000000   0.8888889), wk =   0.0164609
        k(   26) = (  -0.2222222   0.4444444   0.0000000), wk =   0.0329218
        k(   27) = (  -0.3333333   0.5555556  -0.1111111), wk =   0.0658436
        k(   28) = (   0.5555556  -0.3333333   0.7777778), wk =   0.0658436
        k(   29) = (  -0.2222222   0.6666667   0.0000000), wk =   0.0329218
        k(   30) = (   0.6666667  -0.2222222   0.8888889), wk =   0.0658436
        k(   31) = (   0.5555556  -0.1111111   0.7777778), wk =   0.0658436
        k(   32) = (   0.4444444   0.0000000   0.6666667), wk =   0.0329218
        k(   33) = (   0.7777778  -0.1111111   1.0000000), wk =   0.0329218
        k(   34) = (   0.6666667  -0.0000000   0.8888889), wk =   0.0329218
        k(   35) = (   0.5555556  -0.1111111   1.0000000), wk =   0.0329218

     Dense  grid:     1363 G-vectors     FFT dimensions: (  15,  15,  15)

     Estimated max dynamical RAM per process >      13.01 MB

     Check: negative core charge=   -0.000043

     Initial potential from superposition of free atoms

     starting charge       9.9999, renormalised to      10.0000

     negative rho (up, down):  1.260E-04 0.000E+00
     Starting wfcs are   12 randomized atomic wfcs

     total cpu time spent up to now is        0.4 secs

     Self-consistent Calculation

     iteration #  1     ecut=    20.00 Ry     beta= 0.70
     Davidson diagonalization with overlap
     ethr =  1.00E-02,  avg # of iterations =  2.0

     Threshold (ethr) on eigenvalues was too large:
     Diagonalizing with lowered threshold

     Davidson diagonalization with overlap
     ethr =  3.01E-05,  avg # of iterations =  7.0

     negative rho (up, down):  2.097E-04 0.000E+00

     total cpu time spent up to now is        1.0 secs

     total energy              =     -69.45513150 Ry
     estimated scf accuracy    <       0.00327738 Ry

     iteration #  2     ecut=    20.00 Ry     beta= 0.70
     Davidson diagonalization with overlap
     ethr =  3.28E-05,  avg # of iterations =  2.2

     negative rho (up, down):  2.324E-04 0.000E+00

     total cpu time spent up to now is        1.2 secs

     total energy              =     -69.45596046 Ry
     estimated scf accuracy    <       0.00040887 Ry

     iteration #  3     ecut=    20.00 Ry     beta= 0.70
     Davidson diagonalization with overlap
     ethr =  4.09E-06,  avg # of iterations =  2.2

     negative rho (up, down):  2.497E-04 0.000E+00

     total cpu time spent up to now is        1.4 secs

     total energy              =     -69.45602804 Ry
     estimated scf accuracy    <       0.00001272 Ry

     iteration #  4     ecut=    20.00 Ry     beta= 0.70
     Davidson diagonalization with overlap
     c_bands:  1 eigenvalues not converged
     ethr =  1.27E-07,  avg # of iterations =  6.5

     negative rho (up, down):  2.498E-04 0.000E+00

     total cpu time spent up to now is        1.7 secs

     total energy              =     -69.45608884 Ry
     estimated scf accuracy    <       0.00000097 Ry

     iteration #  5     ecut=    20.00 Ry     beta= 0.70
     Davidson diagonalization with overlap
     ethr =  9.73E-09,  avg # of iterations =  4.5

     negative rho (up, down):  2.504E-04 0.000E+00

     total cpu time spent up to now is        1.9 secs

     total energy              =     -69.45608844 Ry
     estimated scf accuracy    <       0.00000166 Ry

     iteration #  6     ecut=    20.00 Ry     beta= 0.70
     Davidson diagonalization with overlap
     ethr =  9.73E-09,  avg # of iterations =  2.9

     negative rho (up, down):  2.503E-04 0.000E+00

     total cpu time spent up to now is        2.2 secs

     total energy              =     -69.45608891 Ry
     estimated scf accuracy    <       0.00000066 Ry

     iteration #  7     ecut=    20.00 Ry     beta= 0.70
     Davidson diagonalization with overlap
     ethr =  6.58E-09,  avg # of iterations =  1.2

     negative rho (up, down):  2.503E-04 0.000E+00

     total cpu time spent up to now is        2.3 secs

     total energy              =     -69.45608882 Ry
     estimated scf accuracy    <       0.00000016 Ry

     iteration #  8     ecut=    20.00 Ry     beta= 0.70
     Davidson diagonalization with overlap
     ethr =  1.60E-09,  avg # of iterations =  3.2

     negative rho (up, down):  2.502E-04 0.000E+00

     total cpu time spent up to now is        2.6 secs

     total energy              =     -69.45608896 Ry
     estimated scf accuracy    <       0.00000008 Ry

     iteration #  9     ecut=    20.00 Ry     beta= 0.70
     Davidson diagonalization with overlap
     ethr =  7.66E-10,  avg # of iterations =  1.8

     negative rho (up, down):  2.503E-04 0.000E+00

     total cpu time spent up to now is        2.7 secs

     total energy              =     -69.45608892 Ry
     estimated scf accuracy    <       0.00000013 Ry

     iteration # 10     ecut=    20.00 Ry     beta= 0.70
     Davidson diagonalization with overlap
     ethr =  7.66E-10,  avg # of iterations =  1.4

     negative rho (up, down):  2.503E-04 0.000E+00

     total cpu time spent up to now is        2.9 secs

     total energy              =     -69.45608890 Ry
     estimated scf accuracy    <       0.00000004 Ry

     iteration # 11     ecut=    20.00 Ry     beta= 0.70
     Davidson diagonalization with overlap
     ethr =  4.14E-10,  avg # of iterations =  2.7

     negative rho (up, down):  2.503E-04 0.000E+00

     total cpu time spent up to now is        3.1 secs

     End of self-consistent calculation

          k = 0.0000 0.0000 0.0000 (   169 PWs)   bands (ev):

     6.3800   6.3800  12.1456  12.1456  12.1456  12.1456  13.1516  13.1516
    14.7284  14.7284

          k =-0.1111 0.1111-0.1111 (   169 PWs)   bands (ev):

     6.8342   6.8342  12.1081  12.1081  12.2360  12.2360  13.2496  13.2496
    14.5783  14.5783

          k =-0.2222 0.2222-0.2222 (   162 PWs)   bands (ev):

     8.0061   8.0061  12.0391  12.0391  12.3083  12.3083  13.5052  13.5052
    14.4799  14.4799

          k =-0.3333 0.3333-0.3333 (   153 PWs)   bands (ev):

     9.0397   9.0397  12.1668  12.1668  12.8446  12.8446  13.3005  13.3005
    15.1440  15.1440

          k =-0.4444 0.4444-0.4444 (   162 PWs)   bands (ev):

     9.2666   9.2666  12.0044  12.0044  13.0238  13.0238  14.9467  14.9467
    15.7759  15.7759

          k = 0.0000 0.2222 0.0000 (   165 PWs)   bands (ev):

     6.9881   6.9881  11.9645  11.9645  12.3763  12.3763  13.3140  13.3140
    14.4023  14.4023

          k =-0.1111 0.3333-0.1111 (   162 PWs)   bands (ev):

     7.9472   7.9472  11.7281  11.7281  12.5022  12.5022  13.6323  13.6323
    14.2404  14.2404

          k =-0.2222 0.4444-0.2222 (   162 PWs)   bands (ev):

     9.1562   9.1562  11.8860  11.8860  12.3226  12.3226  13.5112  13.5112
    15.0225  15.0225

          k =-0.3333 0.5556-0.3333 (   167 PWs)   bands (ev):

     9.5912   9.5912  12.0064  12.0064  12.9796  12.9796  13.4785  13.4785
    16.0044  16.0044

          k = 0.5556-0.3333 0.5556 (   163 PWs)   bands (ev):

     9.6264   9.6264  11.9393  11.9393  13.0201  13.0201  14.0946  14.0946
    15.9591  15.9591

          k = 0.4444-0.2222 0.4444 (   163 PWs)   bands (ev):

     9.5645   9.5645  12.0752  12.0752  12.8868  12.8868  13.2659  13.2659
    15.2005  15.2005

          k = 0.3333-0.1111 0.3333 (   161 PWs)   bands (ev):

     8.8134   8.8134  11.8304  11.8304  12.3907  12.3907  13.5838  13.5838
    14.3233  14.3233

          k = 0.2222-0.0000 0.2222 (   164 PWs)   bands (ev):

     7.5488   7.5488  11.9209  11.9209  12.3889  12.3889  13.4755  13.4755
    14.2763  14.2763

          k = 0.0000 0.4444 0.0000 (   165 PWs)   bands (ev):

     8.5670   8.5670  11.2893  11.2893  12.7544  12.7544  14.0772  14.0772
    14.1469  14.1469

          k =-0.1111 0.5556-0.1111 (   162 PWs)   bands (ev):

     9.5495   9.5495  11.0228  11.0228  12.6302  12.6302  14.2392  14.2392
    15.0396  15.0396

          k =-0.2222 0.6667-0.2222 (   167 PWs)   bands (ev):

    10.1296  10.1296  11.3508  11.3508  12.4546  12.4546  14.0389  14.0389
    16.1123  16.1123

          k = 0.6667-0.2222 0.6667 (   166 PWs)   bands (ev):

    10.3258  10.3258  11.5765  11.5765  12.7669  12.7669  13.8343  13.8343
    16.0262  16.0262

          k = 0.5556-0.1111 0.5556 (   168 PWs)   bands (ev):

    10.5226  10.5226  11.7239  11.7239  12.4638  12.4638  13.6548  13.6548
    15.2397  15.2397

          k = 0.4444 0.0000 0.4444 (   162 PWs)   bands (ev):

    10.0814  10.0814  11.6085  11.6085  12.2251  12.2251  13.6951  13.6951
    14.4047  14.4047

          k = 0.0000 0.6667 0.0000 (   170 PWs)   bands (ev):

     9.7120   9.7120  10.5197  10.5197  13.7349  13.7349  15.1479  15.1479
    15.1495  15.1495

          k =-0.1111 0.7778-0.1111 (   168 PWs)   bands (ev):

     9.9002   9.9002  10.4147  10.4147  13.9564  13.9564  15.1995  15.1995
    16.2022  16.2022

          k = 0.7778-0.1111 0.7778 (   170 PWs)   bands (ev):

    10.1914  10.1914  10.8416  10.8416  13.4322  13.4322  14.8415  14.8415
    16.2242  16.2242

          k = 0.6667-0.0000 0.6667 (   172 PWs)   bands (ev):

    10.6344  10.6344  11.4473  11.4473  12.6219  12.6219  14.3166  14.3166
    15.6362  15.6362

          k = 0.0000 0.8889 0.0000 (   162 PWs)   bands (ev):

     9.5793   9.5793  10.0513  10.0513  15.7499  15.7499  15.8647  15.8647
    16.9171  16.9171

          k = 0.8889 0.0000 0.8889 (   166 PWs)   bands (ev):

     9.7308   9.7308  10.1807  10.1807  15.0083  15.0083  15.6479  15.6479
    16.6118  16.6118

          k =-0.2222 0.4444 0.0000 (   164 PWs)   bands (ev):

     9.0163   9.0163  11.4291  11.4291  12.4492  12.4492  14.0150  14.0150
    14.2009  14.2009

          k =-0.3333 0.5556-0.1111 (   164 PWs)   bands (ev):

    10.0561  10.0561  11.6397  11.6397  12.0954  12.0954  13.8349  13.8349
    15.0802  15.0802

          k = 0.5556-0.3333 0.7778 (   165 PWs)   bands (ev):

    10.2303  10.2303  11.6930  11.6930  12.7242  12.7242  13.6799  13.6799
    15.8525  15.8525

          k =-0.2222 0.6667 0.0000 (   164 PWs)   bands (ev):

    10.1804  10.1804  10.8015  10.8015  12.6504  12.6504  14.9700  14.9700
    15.2238  15.2238

          k = 0.6667-0.2222 0.8889 (   162 PWs)   bands (ev):

    10.5274  10.5274  11.1090  11.1090  12.4830  12.4830  14.6361  14.6361
    15.9925  15.9925

          k = 0.5556-0.1111 0.7778 (   165 PWs)   bands (ev):

    10.8577  10.8577  11.3340  11.3340  12.3405  12.3405  14.2544  14.2544
    15.9096  15.9096

          k = 0.4444 0.0000 0.6667 (   167 PWs)   bands (ev):

    11.0928  11.0928  11.4358  11.4358  11.7272  11.7272  14.2539  14.2539
    15.2744  15.2744

          k = 0.7778-0.1111 1.0000 (   166 PWs)   bands (ev):

    10.0091  10.0091  10.4048  10.4048  13.9769  13.9769  15.4431  15.4431
    16.4181  16.4181

          k = 0.6667-0.0000 0.8889 (   166 PWs)   bands (ev):

    10.3939  10.3939  10.9005  10.9005  13.1418  13.1418  14.8173  14.8173
    16.3737  16.3737

          k = 0.5556-0.1111 1.0000 (   163 PWs)   bands (ev):

    10.8180  10.8180  11.4229  11.4229  12.1102  12.1102  14.4812  14.4812
    16.3391  16.3391

     highest occupied level (ev):    16.9171

!    total energy              =     -69.45608891 Ry
     estimated scf accuracy    <          4.2E-09 Ry

     The total energy is the sum of the following terms:
     one-electron contribution =      15.34310853 Ry
     hartree contribution      =       4.16664759 Ry
     xc contribution           =     -28.47953797 Ry
     ewald contribution        =     -60.48630706 Ry

     convergence has been achieved in  11 iterations

     negative rho (up, down):  2.503E-04 0.000E+00

     Forces acting on atoms (cartesian axes, Ry/au):

     atom    1 type  1   force =     0.00000000    0.00000000    0.00000000

     Total force =     0.000000     Total SCF correction =     0.000000


     Computing stress (Cartesian axis) and pressure


     negative rho (up, down):  2.503E-04 0.000E+00
          total   stress  (Ry/bohr**3)                   (kbar)     P=     -106.44
  -0.00072355   0.00000000   0.00000000         -106.44        0.00        0.00
   0.00000000  -0.00072355   0.00000000            0.00     -106.44        0.00
   0.00000000   0.00000000  -0.00072355            0.00        0.00     -106.44


     Writing all to output data dir ./platinum.save/ :
     XML data file, charge density, pseudopotentials, collected wavefunctions

     init_run     :      0.25s CPU      0.28s WALL (       1 calls)
     electrons    :      2.42s CPU      2.73s WALL (       1 calls)
     forces       :      0.03s CPU      0.04s WALL (       1 calls)
     stress       :      0.17s CPU      0.17s WALL (       1 calls)

     Called by init_run:
     wfcinit      :      0.06s CPU      0.08s WALL (       1 calls)
     potinit      :      0.01s CPU      0.01s WALL (       1 calls)
     hinit0       :      0.17s CPU      0.18s WALL (       1 calls)

     Called by electrons:
     c_bands      :      1.85s CPU      2.11s WALL (      12 calls)
     sum_band     :      0.43s CPU      0.48s WALL (      12 calls)
     v_of_rho     :      0.00s CPU      0.00s WALL (      12 calls)
     newd         :      0.14s CPU      0.15s WALL (      12 calls)
     mix_rho      :      0.00s CPU      0.00s WALL (      12 calls)

     Called by c_bands:
     init_us_2    :      0.03s CPU      0.04s WALL (     945 calls)
     cegterg      :      1.72s CPU      1.96s WALL (     420 calls)

     Called by *egterg:
     cdiaghg      :      0.11s CPU      0.13s WALL (    1703 calls)
     h_psi        :      1.01s CPU      1.17s WALL (    1773 calls)
     s_psi        :      0.17s CPU      0.19s WALL (    1773 calls)
     g_psi        :      0.02s CPU      0.02s WALL (    1318 calls)

     Called by h_psi:
     h_psi:calbec :      0.13s CPU      0.15s WALL (    1773 calls)
     vloc_psi     :      0.69s CPU      0.81s WALL (    1773 calls)
     add_vuspsi   :      0.16s CPU      0.19s WALL (    1773 calls)

     General routines
     calbec       :      0.18s CPU      0.21s WALL (    2368 calls)
     fft          :      0.03s CPU      0.03s WALL (     129 calls)
     ffts         :      0.00s CPU      0.00s WALL (      48 calls)
     fftw         :      0.52s CPU      0.61s WALL (   61372 calls)

     Parallel routines

     PWSCF        :      2.98s CPU      3.33s WALL


   This run was terminated on:  22: 1:48   4Nov2024            

=------------------------------------------------------------------------------=
   JOB DONE.
=------------------------------------------------------------------------------=
