ITEM: TIMESTEP
0
ITEM: NUMBER OF ATOMS
648
ITEM: BOX BOUNDS pp pp pp
-5.5120844385074523e+00 2.6097662150105961e+01
-1.2771230207837192e-01 2.0713290013678069e+01
3.2117523930885632e+00 1.7373825318513106e+01
ITEM: ATOMS id type xs ys zs
346 2 0.172165 0.106301 0.22146
417 1 0.143396 0.110163 0.130951
35 2 0.14451 0.180709 0.091843
568 1 0.0705916 0.0799597 0.406076
409 2 0.0961424 0.0931713 0.164212
8 2 0.160211 0.0598968 0.0541049
178 2 0.121794 0.103952 0.412272
328 2 0.0880633 0.26606 0.0688585
103 2 0.111581 0.238374 0.237016
136 1 0.128277 0.248662 0.131737
17 2 0.169736 0.29253 0.143796
437 2 0.10468 0.245794 0.426036
203 2 0.186724 0.434105 0.0911991
83 1 0.0747445 0.409424 0.312023
15 2 0.101139 0.347949 0.333947
219 1 0.0871574 0.272017 0.32683
161 2 0.0630561 0.413283 0.203555
29 1 0.0441501 0.229907 0.0392987
291 1 0.0644981 0.0405073 0.203415
351 2 0.0380055 0.273093 0.294972
338 2 0.0693633 0.033238 0.316716
532 1 0.213169 0.47885 0.162463
420 2 0.174066 0.446855 0.441874
513 2 0.185225 0.289789 0.4344
199 1 0.21234 0.140798 0.265958
560 1 0.168349 0.116769 0.458628
484 2 0.107554 0.468922 0.342206
212 2 0.205598 0.134237 0.38026
471 1 0.216853 0.266688 0.151387
432 2 0.0282723 0.126149 0.393391
323 2 0.0431668 0.425061 0.024241
509 2 0.0516509 0.154364 0.0174307
522 2 0.216684 0.212553 0.234172
245 1 0.0310483 0.441879 0.129742
438 2 0.0298829 0.415874 0.368501
311 2 0.233798 0.434602 0.255432
89 2 0.0161079 0.0532315 0.180414
336 1 0.232162 0.314225 0.461033
520 2 0.232774 0.237318 0.053675
223 2 0.0110185 0.245674 0.121755
76 2 0.249171 0.323371 0.180647
128 1 0.144671 0.254802 0.492218
1 1 0.136558 0.498205 0.424389
80 2 0.021675 0.329089 0.497453
481 2 0.0948247 0.175001 0.708614
371 1 0.0443179 0.179945 0.686446
46 1 0.125139 0.176819 0.800888
293 2 0.17054 0.144798 0.797295
217 1 0.194782 0.0763304 0.809434
556 2 0.0963208 0.137458 0.874193
468 2 0.127016 0.251218 0.845351
374 2 0.039433 0.225812 0.595599
550 1 0.0516184 0.414113 0.736657
264 1 0.164642 0.305077 0.845957
510 2 0.160126 0.34296 0.747339
559 1 0.13701 0.366168 0.651606
32 2 0.137928 0.301814 0.58287
441 2 0.0908349 0.391645 0.673596
44 2 0.169155 0.421399 0.614378
224 2 0.207171 0.26081 0.843525
137 1 0.0723787 0.456522 0.943377
194 2 0.0690619 0.414879 0.847727
211 2 0.169501 0.357139 0.933608
234 2 0.166313 0.029537 0.871815
146 1 0.0632009 0.099287 0.942161
158 2 0.193484 0.049015 0.703552
465 2 0.200895 0.475291 0.921155
442 1 0.203057 0.43907 0.532658
426 1 0.170635 0.0155909 0.615141
498 1 0.140736 0.0138692 0.972374
508 2 0.0913581 0.0339006 0.962725
283 2 0.0245623 0.262936 0.9439
341 2 0.163053 0.183385 0.520771
135 2 0.182259 0.0522493 0.519041
121 2 0.0104985 0.371883 0.711426
359 2 0.0210484 0.0730201 0.887166
51 2 0.037186 0.489538 0.729262
166 2 0.020661 0.206393 0.778308
205 2 0.016454 0.116968 0.656993
461 1 0.00369797 0.264422 0.541206
111 1 0.17101 0.428156 0.98074
78 2 0.233525 0.377016 0.527054
342 2 0.234461 0.497456 0.536239
260 2 0.120711 0.0134778 0.622091
349 2 0.246661 0.0795875 0.841615
440 2 0.12165 0.453279 0.974199
422 2 0.0614757 0.0453852 0.502245
487 1 0.140411 0.707014 0.308592
129 1 0.181189 0.62638 0.451077
107 2 0.150964 0.684224 0.413223
88 2 0.101509 0.576469 0.215673
529 2 0.165461 0.564214 0.403235
265 2 0.165179 0.657768 0.236867
469 1 0.151013 0.595381 0.180297
220 2 0.143906 0.615224 0.072331
458 2 0.0907926 0.696977 0.284736
551 1 0.0518925 0.570147 0.22731
539 2 0.0676243 0.732053 0.118383
37 1 0.0510073 0.709123 0.216039
112 2 0.152605 0.779527 0.290494
64 1 0.0795008 0.896988 0.175551
139 2 0.0936749 0.828453 0.395116
451 1 0.135418 0.842867 0.336004
490 2 0.174072 0.868623 0.405265
184 2 0.118873 0.888123 0.25431
197 2 0.0986867 0.861042 0.0826957
188 2 0.185834 0.538974 0.19221
547 2 0.176027 0.816243 0.0434046
475 2 0.0780991 0.972752 0.155119
225 2 0.0369493 0.649569 0.469227
447 2 0.0326293 0.872234 0.206508
127 1 0.210534 0.760104 0.0325949
356 2 0.0339218 0.56472 0.33474
574 2 0.0245491 0.639876 0.204557
256 2 0.0346879 0.520016 0.151532
175 2 0.230149 0.644818 0.433426
318 1 0.222866 0.843485 0.396854
286 2 0.0180999 0.75828 0.263976
250 2 0.22807 0.765404 0.406495
206 2 0.235648 0.752551 0.13242
427 2 0.23676 0.870454 0.294441
379 1 0.00548008 0.605228 0.409064
390 1 0.0755453 0.848371 0.496995
327 1 0.138027 0.866383 0.00801021
397 1 0.0648927 0.718363 0.000355403
4 2 0.0261648 0.827917 0.498323
527 2 0.0850201 0.925322 0.498281
68 2 0.149533 0.940608 0.000292525
380 1 0.185278 0.66977 0.652455
381 1 0.0476784 0.564237 0.730871
72 2 0.156379 0.649978 0.738344
493 2 0.0979336 0.564115 0.755863
413 2 0.160615 0.736853 0.621294
164 1 0.143725 0.583432 0.787989
18 2 0.144978 0.597992 0.897193
55 1 0.111954 0.755562 0.639333
411 2 0.0775188 0.703491 0.608244
576 2 0.107599 0.773646 0.745001
116 2 0.183759 0.940282 0.62619
21 1 0.204376 0.890354 0.69565
376 2 0.0939414 0.901807 0.765106
43 2 0.122539 0.838313 0.905388
334 1 0.121046 0.841262 0.79168
549 2 0.169545 0.849819 0.750741
9 2 0.0607549 0.531328 0.936253
433 1 0.0350773 0.666323 0.577678
123 2 0.0455718 0.968337 0.645771
536 2 0.0372231 0.599704 0.635904
565 2 0.180878 0.620374 0.565589
201 1 0.0452477 0.918094 0.732482
485 2 0.102429 0.81898 0.578937
39 1 0.149957 0.651837 0.977209
52 2 0.179024 0.52899 0.76593
500 2 0.0339365 0.771369 0.952537
530 2 0.0222545 0.598471 0.818488
284 2 0.0245263 0.956736 0.82014
263 1 0.0265322 0.58857 0.929422
402 2 0.233866 0.673955 0.701438
483 2 0.229753 0.925608 0.782352
160 2 0.237192 0.592033 0.849598
435 1 0.220076 0.518683 0.833396
407 1 0.0796983 0.987888 0.565643
94 2 0.238225 0.843899 0.645082
274 2 0.0220998 0.853333 0.712405
99 2 0.243506 0.785862 0.953392
115 2 0.11274 0.702666 0.959067
391 2 0.0389749 0.651967 0.987694
242 2 0.193224 0.690442 0.994204
170 2 0.106797 0.506345 0.512744
378 2 0.482407 0.244988 0.461197
285 2 0.256828 0.332906 0.367594
216 2 0.335212 0.352103 0.0287291
332 2 0.41435 0.173148 0.442285
54 2 0.434747 0.311711 0.348394
375 2 0.338131 0.145557 0.485213
452 1 0.451361 0.044625 0.257297
544 2 0.446153 0.363425 0.062622
504 2 0.397732 0.403533 0.209688
258 2 0.365275 0.266803 0.429409
392 2 0.275636 0.0103917 0.0913895
270 2 0.354198 0.165662 0.308808
292 2 0.333589 0.466311 0.0885058
74 1 0.478956 0.0598046 0.465775
412 2 0.313276 0.393444 0.261519
196 2 0.35295 0.0334649 0.317306
48 1 0.276822 0.205537 0.00975932
147 1 0.357921 0.421336 0.288428
79 2 0.372002 0.388283 0.385569
457 2 0.274077 0.129633 0.0320117
301 2 0.483201 0.0400573 0.169051
213 2 0.388069 0.2899 0.133326
290 1 0.361904 0.092867 0.251705
396 2 0.411969 0.0893701 0.227111
297 2 0.252252 0.104275 0.213281
47 1 0.260381 0.369806 0.268451
11 1 0.395928 0.326391 0.42611
227 1 0.365443 0.189002 0.413612
238 2 0.332136 0.0918354 0.160679
499 2 0.316684 0.233371 0.0671387
226 1 0.355297 0.281524 0.0466891
259 2 0.471849 0.0759587 0.351645
307 1 0.419363 0.347957 0.153347
367 2 0.463417 0.482558 0.022368
548 2 0.358125 0.495202 0.316224
210 1 0.283401 0.0824856 0.127559
363 1 0.484255 0.29922 0.378147
324 2 0.435945 0.02321 0.493231
362 1 0.44384 0.416339 0.980345
255 1 0.293826 0.049029 0.844564
434 1 0.453473 0.190616 0.509644
282 1 0.459643 0.0139136 0.765643
344 1 0.255942 0.275066 0.829882
13 2 0.479395 0.124673 0.520719
295 2 0.41697 0.343319 0.525178
566 2 0.26497 0.27004 0.715377
418 2 0.466501 0.398375 0.884222
558 2 0.279939 0.225833 0.90014
562 2 0.393132 0.426841 0.965886
41 2 0.356869 0.174311 0.656284
236 1 0.323825 0.13197 0.595905
369 2 0.322197 0.399714 0.740395
169 2 0.406022 0.146146 0.916315
406 1 0.481527 0.385275 0.776204
538 2 0.439958 0.375271 0.713295
19 1 0.262322 0.233703 0.621468
384 2 0.407349 0.222014 0.779442
383 2 0.377179 0.301669 0.659898
571 2 0.433726 0.215208 0.605718
157 2 0.314032 0.447144 0.908565
354 1 0.392288 0.228765 0.668344
569 1 0.387675 0.0765791 0.88942
564 2 0.463371 0.243503 0.904834
517 2 0.277306 0.162237 0.624452
386 2 0.255592 0.474895 0.779922
173 1 0.288589 0.41718 0.816275
189 2 0.315369 0.0564941 0.620348
125 2 0.416747 0.051746 0.798598
302 2 0.337877 0.0844525 0.858816
310 2 0.265883 0.35097 0.853039
151 2 0.392404 0.0221536 0.972129
49 2 0.378693 0.260251 0.951185
300 1 0.403288 0.367137 0.631628
145 1 0.41391 0.218955 0.892577
545 2 0.253666 0.259588 0.520651
575 2 0.38599 0.440351 0.603252
93 1 0.344144 0.425296 0.994148
393 2 0.30146 0.724582 0.438489
73 1 0.401835 0.651754 0.343049
114 2 0.306599 0.558995 0.222603
436 2 0.365287 0.910265 0.383892
514 1 0.280248 0.87602 0.239549
489 1 0.30372 0.524323 0.119415
241 2 0.266038 0.692174 0.277222
244 1 0.461334 0.556638 0.0495602
473 2 0.253996 0.504351 0.102634
424 1 0.326794 0.555496 0.323918
400 2 0.35545 0.616219 0.351162
233 2 0.32041 0.583013 0.0472068
60 2 0.257864 0.869022 0.469511
22 2 0.432955 0.595338 0.299892
42 2 0.33623 0.93299 0.0145804
415 1 0.277424 0.738036 0.192032
195 2 0.399816 0.714951 0.274798
430 2 0.41257 0.842261 0.245614
131 2 0.464669 0.754736 0.178512
573 2 0.409463 0.575787 0.0481101
176 2 0.436855 0.972409 0.283097
287 2 0.372975 0.791831 0.459811
65 1 0.47997 0.583804 0.268995
12 1 0.414981 0.771296 0.203575
439 2 0.291901 0.538923 0.40594
296 2 0.275855 0.889104 0.129121
69 2 0.315382 0.989997 0.463759
288 2 0.417291 0.665091 0.447851
524 1 0.257073 0.702631 0.391776
183 1 0.28723 0.942368 0.048242
394 2 0.480965 0.567134 0.156239
156 1 0.348467 0.735426 0.0478992
360 2 0.477205 0.893946 0.173498
298 1 0.391105 0.863255 0.44816
102 1 0.331883 0.971096 0.361297
171 2 0.300025 0.802889 0.244069
143 2 0.384893 0.772797 0.110257
331 2 0.402022 0.938195 0.125518
58 2 0.313434 0.711969 0.123817
27 2 0.304255 0.936268 0.282249
533 1 0.38785 0.949059 0.0154208
75 1 0.42981 0.912211 0.211358
553 2 0.475418 0.73483 0.000617249
303 2 0.370444 0.677942 0.989553
113 2 0.325919 0.780286 0.974908
62 2 0.494683 0.916587 0.99467
273 1 0.49946 0.614038 0.851608
476 2 0.372772 0.9714 0.594644
567 2 0.318081 0.505456 0.575446
249 2 0.302059 0.606454 0.752065
235 1 0.427075 0.664203 0.752613
495 2 0.377958 0.649749 0.762526
87 2 0.477252 0.825909 0.876383
247 2 0.463247 0.951014 0.828275
204 2 0.366072 0.529291 0.723691
492 2 0.390935 0.567741 0.555323
448 2 0.415815 0.898836 0.950593
521 2 0.435261 0.722467 0.819848
279 2 0.486666 0.592723 0.961363
480 1 0.462551 0.896615 0.909509
370 1 0.476559 0.747237 0.885657
209 1 0.276541 0.856571 0.576941
101 1 0.367312 0.509286 0.61145
528 2 0.459089 0.608935 0.786904
117 2 0.453902 0.985113 0.660383
423 2 0.284662 0.712097 0.843921
104 2 0.311065 0.796066 0.581448
50 2 0.291264 0.843013 0.839844
453 1 0.262211 0.649272 0.791139
144 2 0.29587 0.926331 0.610022
262 1 0.399102 0.645078 0.552769
152 2 0.430679 0.671307 0.638487
563 2 0.423299 0.89821 0.516223
366 2 0.300662 0.974167 0.826728
389 1 0.288037 0.778588 0.897578
463 2 0.359091 0.573624 0.892511
190 1 0.349491 0.588206 0.784482
361 1 0.324383 0.987491 0.575907
505 1 0.424354 0.969738 0.569948
278 2 0.354936 0.686812 0.561499
246 1 0.337418 0.749214 0.509615
516 1 0.270948 0.914091 0.846474
572 2 0.259435 0.928295 0.9556
163 1 0.279913 0.516785 0.507162
38 1 0.363952 0.60203 0.993339
395 2 0.585699 0.228685 0.268106
149 2 0.545797 0.266931 0.116674
24 2 0.723509 0.119087 0.131132
66 1 0.55264 0.278557 0.229761
174 1 0.704011 0.0809231 0.0423918
240 2 0.569659 0.351412 0.242997
445 2 0.584399 0.470082 0.286448
214 2 0.627164 0.417191 0.142925
352 1 0.581707 0.419137 0.202706
56 1 0.642029 0.379404 0.0538973
132 2 0.744885 0.454203 0.218354
33 2 0.547968 0.434421 0.124142
14 2 0.518529 0.0147112 0.481362
313 2 0.504097 0.362496 0.419672
81 2 0.506233 0.274867 0.284005
159 2 0.688443 0.381692 0.00135255
518 2 0.696754 0.00365537 0.0760519
165 1 0.576986 0.265318 0.0252831
350 2 0.614923 0.317634 0.0310077
496 1 0.709854 0.0112284 0.499191
257 2 0.599116 0.195254 0.0163672
998 4 0.564318 0.0354759 0.171361
1009 3 0.65403 0.145582 0.172621
1010 4 0.652438 0.187069 0.2014
1011 4 0.6403 0.117557 0.216533
1056 4 0.630682 0.278259 0.437895
1018 3 0.641257 0.279295 0.196169
1019 4 0.67143 0.279138 0.190466
1020 4 0.634034 0.323579 0.204007
1055 4 0.66592 0.320816 0.401576
1054 3 0.650152 0.28295 0.386591
1050 4 0.724236 0.143966 0.376253
1047 4 0.646441 0.128992 0.363406
1046 4 0.662525 0.171563 0.442233
1045 3 0.637742 0.149668 0.420549
1044 4 0.535156 0.136127 0.379492
1043 4 0.565545 0.178733 0.4333
1042 3 0.561354 0.13531 0.413369
45 2 0.693867 0.105913 0.727441
478 1 0.734481 0.0976461 0.661339
299 1 0.535225 0.113566 0.828578
446 2 0.575547 0.0995011 0.903947
358 2 0.525246 0.186331 0.812513
486 2 0.722945 0.21603 0.911727
526 2 0.58703 0.457555 0.792264
281 1 0.509435 0.256102 0.853481
25 2 0.622222 0.461006 0.518701
243 2 0.721542 0.0666016 0.563985
142 2 0.547144 0.275489 0.933416
181 1 0.612868 0.13196 0.968232
555 2 0.50976 0.446862 0.733828
23 2 0.742324 0.0835664 0.966984
269 2 0.504151 0.0607022 0.789917
108 2 0.741593 0.266919 0.740018
330 2 0.506594 0.316393 0.783936
372 1 0.73893 0.369044 0.990435
337 2 0.656462 0.0999458 0.997243
172 1 0.551883 0.499872 0.742758
1108 3 0.66089 0.00275181 0.827528
1110 4 0.640242 0.0191638 0.784391
1092 4 0.635415 0.323002 0.602685
1091 4 0.670443 0.279184 0.636697
1090 3 0.640862 0.279827 0.622268
1089 4 0.540508 0.266815 0.643677
1088 4 0.572337 0.319161 0.62255
1087 3 0.549165 0.296097 0.595324
1083 4 0.644873 0.149698 0.566103
1082 4 0.64847 0.16745 0.669448
1081 3 0.653423 0.133014 0.626113
1080 4 0.56378 0.175506 0.586345
1079 4 0.544223 0.116259 0.630162
1078 3 0.554024 0.158492 0.645228
1071 4 0.551876 0.0335098 0.65796
1069 3 0.557779 0.0148703 0.597609
1126 3 0.63962 0.284637 0.844265
1127 4 0.652503 0.323702 0.865158
1128 4 0.654591 0.273693 0.787765
343 1 0.551161 0.663576 0.253154
494 2 0.50403 0.650258 0.289096
405 2 0.573221 0.595515 0.26648
333 2 0.537898 0.694269 0.145549
105 2 0.584168 0.70623 0.314233
466 2 0.659444 0.662363 0.428001
20 1 0.620154 0.703007 0.393874
470 1 0.509232 0.883889 0.089473
404 2 0.714579 0.878646 0.402231
154 1 0.734299 0.93658 0.337091
525 1 0.703447 0.938402 0.135589
364 2 0.668568 0.889021 0.103246
59 2 0.701988 0.950501 0.247453
179 2 0.524185 0.814347 0.0919776
36 2 0.511526 0.53323 0.321714
228 1 0.563321 0.532177 0.33213
276 2 0.576385 0.54861 0.442126
319 2 0.613961 0.753023 0.477162
2 1 0.502947 0.744193 0.0994019
268 2 0.735664 0.997443 0.40692
999 4 0.535344 0.990431 0.224753
1144 3 0.646585 0.577353 0.223156
1145 4 0.63499 0.612269 0.187683
1146 4 0.665166 0.556109 0.179903
997 3 0.562396 0.992427 0.194521
1153 3 0.639994 0.713089 0.200426
1154 4 0.669794 0.705808 0.194988
1155 4 0.636928 0.758645 0.195243
1156 3 0.732443 0.722526 0.187228
1157 4 0.749597 0.694987 0.225438
1158 4 0.749389 0.760063 0.177943
1188 4 0.561737 0.845596 0.370259
1187 4 0.555885 0.902542 0.435329
1186 3 0.544369 0.86126 0.4206
1176 4 0.727842 0.610526 0.40968
1174 3 0.736699 0.566607 0.410155
232 2 0.729092 0.636365 0.564883
449 2 0.511898 0.690001 0.851651
248 2 0.568365 0.525966 0.633554
348 2 0.68262 0.952106 0.527021
320 2 0.531233 0.560813 0.806138
254 1 0.677921 0.643766 0.542138
140 2 0.660661 0.702254 0.603623
421 2 0.646078 0.581453 0.562065
414 2 0.674189 0.825318 0.560037
222 2 0.60043 0.792228 0.648781
462 1 0.636513 0.77134 0.576272
84 1 0.601558 0.530611 0.54078
202 2 0.747052 0.607555 0.884844
399 1 0.702879 0.881633 0.518007
70 2 0.747612 0.89022 0.573243
1109 4 0.645661 0.996456 0.885208
1070 4 0.552386 0.970036 0.605991
1237 3 0.743939 0.73592 0.80907
1236 4 0.625178 0.732535 0.844314
1235 4 0.671459 0.737717 0.817888
1234 3 0.650116 0.707269 0.834953
1239 4 0.736032 0.749931 0.870971
1227 4 0.633722 0.611504 0.832316
1226 4 0.671641 0.56713 0.832442
1225 3 0.641359 0.56706 0.832387
1240 3 0.555245 0.852737 0.821262
1241 4 0.57171 0.890267 0.808323
1242 4 0.535077 0.866363 0.867519
1243 3 0.642369 0.85424 0.837278
1244 4 0.672168 0.857713 0.826392
1245 4 0.632189 0.897419 0.833492
425 1 0.829715 0.353622 0.320329
90 2 0.87322 0.11342 0.185965
534 1 0.868865 0.10654 0.0720908
317 1 0.792813 0.472832 0.231862
207 2 0.982455 0.42545 0.147453
408 1 0.843166 0.102881 0.281562
6 2 0.882085 0.0300332 0.0547039
385 2 0.823875 0.319628 0.418109
511 2 0.896202 0.156673 0.015204
200 1 0.791861 0.287985 0.131188
460 1 0.99843 0.388011 0.4493
92 1 0.983445 0.161407 0.379837
355 2 0.90758 0.253771 0.380338
335 1 0.894894 0.184229 0.418243
3 1 0.816423 0.449302 0.0231095
97 2 0.836987 0.288683 0.0814134
416 1 0.765896 0.146384 0.166715
543 1 0.873375 0.32953 0.0326488
357 2 0.882497 0.352256 0.296263
502 2 0.856024 0.156697 0.355063
368 2 0.75582 0.326976 0.0804997
501 2 0.81904 0.114038 0.0474636
309 1 0.92721 0.31663 0.331261
95 2 0.851895 0.0327432 0.320213
53 2 0.800855 0.315141 0.238221
96 2 0.953663 0.359487 0.406973
535 2 0.775116 0.216031 0.137832
387 2 0.811155 0.425774 0.312964
61 2 0.903566 0.47018 0.162227
231 2 0.985733 0.22197 0.451538
329 2 0.935146 0.138741 0.408326
305 2 0.982308 0.184783 0.271156
261 2 0.912003 0.357827 0.0933882
326 1 0.935142 0.425423 0.101037
167 2 0.815699 0.446895 0.133882
153 2 0.794111 0.112925 0.24546
491 2 0.957978 0.299613 0.24718
340 2 0.79007 0.00060033 0.0364048
497 1 0.997028 0.251767 0.228322
1049 4 0.756341 0.144404 0.455575
1048 3 0.750921 0.161898 0.394263
126 2 0.848221 0.00938702 0.726977
345 1 0.834234 0.494462 0.727274
141 2 0.922794 0.369706 0.694231
570 1 0.991675 0.241969 0.86079
459 2 0.849024 0.392355 0.984976
5 2 0.765884 0.435893 0.993323
120 1 0.992562 0.0151645 0.8383
519 2 0.785709 0.403854 0.519599
321 2 0.75472 0.330557 0.900405
507 1 0.906124 0.204968 0.931854
239 2 0.769875 0.0541015 0.715621
477 2 0.968369 0.0395303 0.743915
230 2 0.968726 0.280481 0.619908
182 1 0.873641 0.361242 0.689488
472 2 0.985619 0.442788 0.530322
382 2 0.877816 0.188216 0.843066
198 2 0.854115 0.356538 0.586067
119 1 0.761853 0.236846 0.651231
267 2 0.758977 0.163635 0.638732
192 1 0.753478 0.259288 0.849497
86 2 0.849001 0.420119 0.739142
100 1 0.969188 0.0830315 0.649474
506 1 0.812417 0.33382 0.524311
456 2 0.959646 0.0423481 0.55312
82 1 0.790936 0.0657003 0.980507
177 2 0.788939 0.279271 0.584385
347 2 0.80158 0.229718 0.834716
542 1 0.845878 0.224246 0.774282
130 2 0.845107 0.176582 0.685948
31 2 0.813358 0.0622099 0.880271
431 2 0.858847 0.0735854 0.579383
312 2 0.896973 0.279637 0.962934
523 1 0.80539 0.0198613 0.784538
138 1 0.967314 0.332297 0.711139
339 2 0.880313 0.18856 0.524514
454 2 0.965542 0.297849 0.811192
557 2 0.861823 0.294089 0.743579
444 1 0.87977 0.142362 0.615521
71 2 0.925548 0.13003 0.657498
398 1 0.80416 0.471429 0.522811
180 2 0.954935 0.19563 0.906118
186 2 0.910047 0.492271 0.515187
546 2 0.936531 0.459905 0.994806
266 2 0.809684 0.496176 0.627451
237 1 0.857863 0.00194223 0.614881
541 1 0.88151 0.527241 0.437204
63 2 0.920953 0.989358 0.407684
28 1 0.820538 0.868609 0.345301
122 2 0.817986 0.676887 0.256778
208 1 0.887125 0.958923 0.106697
57 1 0.994005 0.828249 0.25094
16 2 0.84701 0.719322 0.414286
277 2 0.90559 0.968671 0.212947
377 2 0.958065 0.752273 0.022917
540 2 0.975363 0.848663 0.354031
85 2 0.872956 0.584524 0.208823
30 1 0.979151 0.845346 0.466632
455 2 0.956705 0.818563 0.17583
289 1 0.935809 0.759238 0.123827
91 1 0.908167 0.530098 0.232811
325 1 0.97304 0.63947 0.233527
474 2 0.885846 0.757228 0.10943
503 2 0.952006 0.568208 0.215506
133 2 0.880288 0.603285 0.431419
306 2 0.844628 0.645441 0.0488491
98 2 0.808661 0.859197 0.460057
450 2 0.841759 0.918204 0.103578
162 2 0.901684 0.506259 0.337917
193 2 0.75113 0.910258 0.116292
512 2 0.97435 0.647534 0.348026
253 1 0.887573 0.974653 0.322882
294 2 0.783339 0.918493 0.315553
316 1 0.793286 0.924861 0.0570771
221 2 0.797673 0.548497 0.245811
134 2 0.763314 0.718966 0.377564
464 2 0.866534 0.90741 0.348313
148 2 0.92013 0.91551 0.0429423
479 1 0.810002 0.731504 0.336783
515 1 0.826476 0.606091 0.222286
67 2 0.947221 0.692301 0.180688
185 2 0.976949 0.559062 0.473662
419 2 0.81876 0.801111 0.296066
308 1 0.852078 0.720634 0.0529672
191 1 0.862209 0.664913 0.487785
275 2 0.832103 0.508496 0.455437
1175 4 0.766904 0.568559 0.406314
229 2 0.875043 0.538821 0.716728
271 1 0.937691 0.97798 0.515141
428 2 0.964797 0.914276 0.512059
106 2 0.828912 0.523097 0.996945
304 2 0.816078 0.841423 0.640952
403 2 0.957717 0.983799 0.914177
7 2 0.905668 0.689434 0.539971
482 2 0.799783 0.518738 0.804326
410 2 0.779809 0.623455 0.715528
10 1 0.958635 0.506518 0.54792
531 2 0.929143 0.751157 0.689135
251 2 0.847951 0.846225 0.854731
322 2 0.952994 0.535848 0.654978
488 1 0.798009 0.889255 0.560076
552 1 0.852149 0.589747 0.970564
280 1 0.939203 0.528444 0.943495
109 1 0.775045 0.661375 0.620076
537 2 0.773349 0.832012 0.79059
443 1 0.923497 0.559706 0.740524
155 1 0.985052 0.778372 0.927522
218 1 0.800391 0.881213 0.856459
373 2 0.78938 0.950236 0.816113
187 2 0.898528 0.735559 0.8602
388 1 0.787226 0.59208 0.8238
401 2 0.988578 0.698756 0.597394
252 2 0.982709 0.564687 0.972285
77 2 0.791283 0.883297 0.9652
118 1 0.93328 0.710763 0.785266
34 2 0.772497 0.7361 0.641743
150 2 0.832467 0.615342 0.872531
353 1 0.796423 0.787574 0.706943
365 2 0.925856 0.635953 0.767367
561 1 0.943788 0.733159 0.584291
314 2 0.902497 0.576246 0.970215
26 2 0.977437 0.731749 0.836126
272 1 0.853343 0.769375 0.859965
429 2 0.817313 0.961171 0.573231
315 2 0.833477 0.752007 0.960154
554 2 0.938035 0.521058 0.832861
168 2 0.964631 0.849735 0.91484
467 2 0.89958 0.963507 0.589057
215 2 0.821514 0.648993 0.557115
110 1 0.948426 0.916091 0.955304
40 2 0.829797 0.747993 0.76676
124 2 0.947992 0.788982 0.511069
1238 4 0.751501 0.691775 0.817018
ITEM: TIMESTEP
1000
ITEM: NUMBER OF ATOMS
648
ITEM: BOX BOUNDS pp pp pp
-5.5120844385074523e+00 2.6097662150105961e+01
-1.2771230207837192e-01 2.0713290013678069e+01
3.2117523930885632e+00 1.7373825318513106e+01
ITEM: ATOMS id type xs ys zs
346 2 0.175087 0.089364 0.219411
417 1 0.141918 0.10006 0.139246
35 2 0.143071 0.171753 0.110886
568 1 0.0699931 0.0784314 0.411439
409 2 0.0941879 0.0822807 0.171166
8 2 0.154191 0.0557456 0.0502146
178 2 0.119688 0.10341 0.413179
328 2 0.0926241 0.261766 0.0728249
103 2 0.112918 0.236927 0.248473
136 1 0.129893 0.243077 0.141565
17 2 0.171688 0.283325 0.146298
437 2 0.106463 0.252716 0.428045
203 2 0.178126 0.434411 0.0804698
83 1 0.0754774 0.413133 0.315711
15 2 0.102586 0.351396 0.334037
219 1 0.0909166 0.278348 0.331427
161 2 0.057955 0.409321 0.211446
29 1 0.0481119 0.236586 0.0393781
291 1 0.0569694 0.0368134 0.208463
351 2 0.0410454 0.281704 0.298702
338 2 0.0648179 0.0349979 0.321073
532 1 0.208539 0.471708 0.153532
420 2 0.166324 0.453021 0.454097
513 2 0.182739 0.29362 0.447137
199 1 0.21274 0.125499 0.271538
560 1 0.164717 0.116913 0.460466
484 2 0.107212 0.470231 0.333349
212 2 0.201166 0.123787 0.380345
471 1 0.217019 0.258592 0.168813
432 2 0.0339672 0.13082 0.409337
323 2 0.051839 0.413785 0.0332883
509 2 0.050817 0.158775 0.0226683
522 2 0.213893 0.199826 0.241667
245 1 0.0290381 0.434808 0.128252
438 2 0.0321238 0.416232 0.376561
311 2 0.223801 0.426952 0.239635
89 2 0.0116079 0.0616532 0.182517
336 1 0.229293 0.320612 0.459393
520 2 0.236624 0.226813 0.0777657
223 2 0.0177662 0.252802 0.127418
440 2 0.11904 0.46851 0.960158
128 1 0.145731 0.257221 0.495655
422 2 0.0631128 0.0425044 0.508003
80 2 0.0228723 0.333738 0.503866
481 2 0.0927809 0.172441 0.712665
371 1 0.0416342 0.176673 0.687202
46 1 0.118328 0.17785 0.811264
293 2 0.165846 0.148936 0.805758
217 1 0.187239 0.0796718 0.8041
556 2 0.08904 0.13363 0.874676
468 2 0.123173 0.247656 0.859318
374 2 0.0406869 0.22587 0.601952
550 1 0.0549417 0.421291 0.734543
264 1 0.156233 0.307794 0.858315
510 2 0.155719 0.333283 0.752871
559 1 0.137504 0.360429 0.656892
32 2 0.136042 0.300085 0.587586
441 2 0.0938055 0.394546 0.67528
44 2 0.17005 0.415587 0.625587
224 2 0.200665 0.274862 0.872328
137 1 0.0724117 0.450336 0.946309
194 2 0.0652152 0.420081 0.846758
211 2 0.155003 0.368928 0.92473
234 2 0.157568 0.0365032 0.867257
146 1 0.0595111 0.101393 0.95112
158 2 0.189094 0.0531791 0.701045
465 2 0.199722 0.480002 0.923657
442 1 0.197861 0.442012 0.536028
426 1 0.167774 0.0146615 0.618531
498 1 0.133288 0.0151495 0.96608
508 2 0.0867841 0.0402575 0.974628
283 2 0.0288136 0.263156 0.94417
341 2 0.158803 0.182464 0.516068
135 2 0.176479 0.0554397 0.523267
121 2 0.0117977 0.384564 0.712726
359 2 0.0132803 0.080604 0.912712
260 2 0.118441 0.00915881 0.626361
166 2 0.0220439 0.207329 0.781173
205 2 0.00873207 0.124302 0.660232
461 1 0.00734843 0.267737 0.545965
111 1 0.163959 0.438117 0.973365
78 2 0.231157 0.387228 0.510497
51 2 0.045634 0.495769 0.713822
460 1 -0.000890577 0.389403 0.452852
349 2 0.238122 0.0774212 0.845248
497 1 0.00239656 0.259967 0.23268
545 2 0.246785 0.269234 0.539212
487 1 0.137698 0.698043 0.29209
129 1 0.184325 0.626773 0.434099
107 2 0.155561 0.683672 0.394806
88 2 0.100359 0.561559 0.193898
529 2 0.162869 0.564827 0.388851
265 2 0.15815 0.649862 0.218585
469 1 0.147325 0.583853 0.167667
220 2 0.145478 0.601112 0.057879
458 2 0.0899393 0.680958 0.286722
551 1 0.0499931 0.559312 0.215958
539 2 0.0684864 0.716164 0.118876
37 1 0.0536275 0.69759 0.21781
112 2 0.142783 0.773075 0.272304
64 1 0.0733124 0.896082 0.163091
139 2 0.0942386 0.828056 0.390834
451 1 0.128879 0.838808 0.318127
490 2 0.169744 0.86392 0.370001
184 2 0.109491 0.884307 0.238891
197 2 0.0901256 0.869553 0.0656903
188 2 0.182825 0.532573 0.181724
547 2 0.169336 0.828753 0.0438957
475 2 0.0644114 0.970153 0.160772
225 2 0.0405187 0.633098 0.470065
447 2 0.0297056 0.861584 0.200195
127 1 0.204314 0.772608 0.0353847
356 2 0.0384834 0.553459 0.325164
574 2 0.027504 0.629874 0.201493
256 2 0.0277697 0.510338 0.149347
175 2 0.230406 0.648366 0.413264
318 1 0.218487 0.843593 0.385217
286 2 0.0206005 0.747088 0.258274
250 2 0.224919 0.768644 0.381576
206 2 0.229627 0.765256 0.132586
427 2 0.245802 0.876504 0.299569
379 1 0.0111401 0.593121 0.403236
390 1 0.078367 0.852423 0.490013
327 1 0.130673 0.867486 0.999506
397 1 0.0639426 0.700186 0.00833912
4 2 0.0296649 0.833349 0.494543
527 2 0.0849943 0.92642 0.502515
68 2 0.139727 0.940639 0.976502
380 1 0.182215 0.665164 0.638538
381 1 0.0507661 0.568833 0.742217
72 2 0.150587 0.633657 0.708291
493 2 0.0957309 0.565769 0.786714
413 2 0.161747 0.73207 0.612856
164 1 0.143949 0.582839 0.788026
18 2 0.157075 0.615084 0.88325
55 1 0.113669 0.757233 0.625224
411 2 0.0819068 0.709266 0.576929
576 2 0.101633 0.770529 0.734203
116 2 0.182866 0.940847 0.630862
21 1 0.196555 0.887105 0.705742
376 2 0.0801676 0.887198 0.765101
43 2 0.119361 0.830259 0.904184
334 1 0.11445 0.832401 0.792954
549 2 0.158709 0.844448 0.744043
9 2 0.0484689 0.51798 0.952334
433 1 0.0426913 0.66353 0.570466
123 2 0.0452129 0.963581 0.645502
536 2 0.046036 0.615228 0.654825
565 2 0.184558 0.623836 0.545598
201 1 0.0386403 0.930146 0.74385
485 2 0.106218 0.820678 0.567119
39 1 0.151041 0.65385 0.97623
52 2 0.175382 0.524364 0.775506
500 2 0.0382589 0.756594 0.963625
530 2 0.0206319 0.593648 0.826365
284 2 0.0341769 0.985741 0.816559
263 1 0.0200102 0.579288 0.937556
402 2 0.225403 0.67075 0.692587
483 2 0.218049 0.91782 0.796166
160 2 0.235361 0.589581 0.840911
435 1 0.218899 0.518238 0.835709
407 1 0.0780276 0.987225 0.571928
94 2 0.231565 0.846653 0.654295
342 2 0.228836 0.503251 0.550101
99 2 0.238359 0.79105 0.958793
115 2 0.109728 0.692601 0.964632
391 2 0.0384641 0.634918 -0.00165694
242 2 0.185832 0.703787 0.00517307
170 2 0.104248 0.524044 0.496359
60 2 0.241759 0.867878 0.481198
1 1 0.133794 0.502733 0.416105
401 2 -0.00040476 0.705105 0.579471
378 2 0.472617 0.226612 0.463839
313 2 0.497665 0.339292 0.416574
216 2 0.328698 0.341411 0.0266502
332 2 0.405593 0.150153 0.463533
54 2 0.426118 0.296877 0.356752
375 2 0.323996 0.141636 0.490452
452 1 0.452941 0.0362683 0.258589
544 2 0.438542 0.370013 0.079906
504 2 0.389846 0.39864 0.2305
258 2 0.359876 0.247388 0.434254
392 2 0.278378 0.00925945 0.0844404
270 2 0.357412 0.147241 0.32091
292 2 0.328391 0.459743 0.0916773
74 1 0.473028 0.0440018 0.470021
412 2 0.304982 0.400315 0.263589
196 2 0.357739 0.0240087 0.331728
48 1 0.275303 0.199806 0.0214096
147 1 0.351454 0.414911 0.304486
79 2 0.355231 0.363496 0.386484
457 2 0.278056 0.125367 0.0491437
301 2 0.488708 0.0361638 0.181426
213 2 0.383796 0.290444 0.135024
290 1 0.364281 0.0819805 0.259268
396 2 0.412662 0.0786327 0.224884
324 2 0.429181 0.0101338 0.49526
93 1 0.338293 0.414818 0.00395134
11 1 0.386956 0.310265 0.424558
227 1 0.361064 0.17129 0.425308
238 2 0.330126 0.0814162 0.178305
499 2 0.318297 0.227187 0.0651072
226 1 0.353246 0.277448 0.0439373
259 2 0.467944 0.0582221 0.360374
307 1 0.411317 0.348006 0.165156
367 2 0.457921 0.474839 0.00474
548 2 0.352731 0.486207 0.340737
210 1 0.283842 0.0761789 0.137631
363 1 0.475207 0.279479 0.380271
297 2 0.25519 0.0935076 0.225789
362 1 0.436705 0.40806 0.982765
255 1 0.283876 0.0491125 0.860719
434 1 0.44767 0.173742 0.523552
282 1 0.452817 0.0116223 0.778691
47 1 0.25869 0.369858 0.267739
13 2 0.474792 0.108988 0.530249
295 2 0.406511 0.333159 0.523131
575 2 0.379679 0.430278 0.616731
418 2 0.455694 0.378634 0.889545
558 2 0.272041 0.223224 0.9113
562 2 0.386345 0.416862 0.975556
41 2 0.353207 0.161051 0.655417
236 1 0.314664 0.129504 0.59641
369 2 0.313518 0.39537 0.733463
169 2 0.399027 0.133246 0.92944
406 1 0.468262 0.368574 0.777226
538 2 0.428278 0.3511 0.712113
19 1 0.258337 0.238398 0.634518
384 2 0.397302 0.212402 0.790204
383 2 0.368474 0.285217 0.6575
571 2 0.4283 0.198979 0.620657
157 2 0.310606 0.433876 0.914855
354 1 0.386021 0.215112 0.679429
569 1 0.383362 0.063956 0.903778
564 2 0.459511 0.22301 0.914006
517 2 0.273707 0.168806 0.629465
555 2 0.488401 0.43184 0.730139
173 1 0.285232 0.414006 0.821236
189 2 0.302709 0.0533073 0.602893
125 2 0.410191 0.0452737 0.812182
302 2 0.331832 0.0684324 0.876609
310 2 0.26249 0.350544 0.855283
151 2 0.39302 0.0108469 0.979795
49 2 0.381134 0.254225 0.957037
300 1 0.39309 0.353558 0.628571
145 1 0.408867 0.207751 0.895828
330 2 0.495017 0.301644 0.789601