LAMMPS (29 Aug 2024)
units                  real
atom_style	       full
bond_style	       harmonic
angle_style	       harmonic
boundary	       p p p

neighbor 2.0 bin
neigh_modify every 1 delay 0 check yes

# ============= read data and parameters files

pair_style            lj/cut 10.0
pair_modify           shift yes mix arithmetic

read_data             equilb_100ps.data
Reading data file ...
  orthogonal box = (-0.149499 -0.193 -38.75) to (32.850501 32.807 41.25)
  1 by 2 by 4 MPI processor grid
  reading atoms ...
  4373 atoms
  reading velocities ...
  4373 velocities
  scanning bonds ...
  4 = max bonds/atom
  scanning angles ...
  6 = max angles/atom
  scanning dihedrals ...
  8 = max dihedrals/atom
  scanning impropers ...
  2 = max impropers/atom
  orthogonal box = (-0.149499 -0.193 -38.75) to (32.850501 32.807 41.25)
  1 by 2 by 4 MPI processor grid
  reading bonds ...
  3944 bonds
  reading angles ...
  4703 angles
  reading dihedrals ...
  6987 dihedrals
  reading impropers ...
  1158 impropers
Finding 1-2 1-3 1-4 neighbors ...
  special bond factors lj:    0        0        0       
  special bond factors coul:  0        0        0       
     4 = max # of 1-2 neighbors
     6 = max # of 1-3 neighbors
    18 = max # of 1-4 neighbors
    18 = max # of special neighbors
  special bonds CPU = 0.001 seconds
  read_data CPU = 0.085 seconds

pair_coeff  1  1      0.0859  3.3997
pair_coeff  2  2      0.0659  3.5000
pair_coeff  3  3      0.0859  3.3997
pair_coeff  4  4      0.0859  3.3997
pair_coeff  5  5      0.0299  2.5000
pair_coeff  6  6      0.0000  1.0000
pair_coeff  7  7      0.1521  3.1507

bond_coeff     1      938.0    1.42
bond_coeff     2      661.2    1.10
bond_coeff     3      938.0    1.42
bond_coeff     4      938.0    1.42
bond_coeff     5      450.0    0.9572

angle_coeff    1      126      120.0
angle_coeff    2      126      120.0
angle_coeff    3      126      120.0
angle_coeff    4      78.8     109.5
angle_coeff    5      55.0     104.52


group  water     type 6  7
2985 atoms in group water
group  memb      type 1
442 atoms in group memb
group  CG1       type 3
448 atoms in group CG1
group  CG2       type 4
448 atoms in group CG2
group  CG3       type 3 4
896 atoms in group CG3


compute 9 all pe/atom

dump dump_1 all custom 1000 dump.lammpstrj id type x y z

timestep 1.0
thermo_style custom step time cpu temp pe ke etotal press vol
thermo 100

fix                    myshk1  water shake 1.0e-5 200 0 b 5 a 5
Finding SHAKE clusters ...
       0 = # of size 2 clusters
       0 = # of size 3 clusters
       0 = # of size 4 clusters
     995 = # of frozen angles
  find clusters CPU = 0.000 seconds

fix                    freeze memb setforce 0.0 0.0 0.0

fix                    pistonkeep CG3  setforce  0.0   0.0    NULL
fix                    myforce1   CG1  aveforce  NULL  NULL  -1.439     #P=250 bars
fix                    freeze1    CG2  setforce 0.0 0.0 0.0

fix                    mynvt  all nvt temp 300 300 100.0
run                    1000000

CITE-CITE-CITE-CITE-CITE-CITE-CITE-CITE-CITE-CITE-CITE-CITE-CITE

Your simulation uses code contributions which should be cited:

- Type Label Framework: https://doi.org/10.1021/acs.jpcb.3c08419

@Article{Gissinger24,
 author = {Jacob R. Gissinger, Ilia Nikiforov, Yaser Afshar, Brendon Waters, Moon-ki Choi, Daniel S. Karls, Alexander Stukowski, Wonpil Im, Hendrik Heinz, Axel Kohlmeyer, and Ellad B. Tadmor},
 title = {Type Label Framework for Bonded Force Fields in LAMMPS},
 journal = {J. Phys. Chem. B},
 year =    2024,
 volume =  128,
 number =  13,
 pages =   {3282–-3297}
}

CITE-CITE-CITE-CITE-CITE-CITE-CITE-CITE-CITE-CITE-CITE-CITE-CITE

Generated 21 of 21 mixed pair_coeff terms from arithmetic mixing rule
WARNING: Dihedrals are defined but no dihedral style is set (../force.cpp:207)
WARNING: Likewise 1-4 special neighbor interactions != 1.0 (../force.cpp:209)
WARNING: Impropers are defined but no improper style is set (../force.cpp:212)
Neighbor list info ...
  update: every = 1 steps, delay = 0 steps, check = yes
  max neighbors/atom: 2000, page size: 100000
  master list distance cutoff = 12
  ghost atom cutoff = 12
  binsize = 6, bins = 6 6 14
  1 neighbor lists, perpetual/occasional/extra = 1 0 0
  (1) pair lj/cut, perpetual
      attributes: half, newton on
      pair build: half/bin/newton
      stencil: half/bin/3d
      bin: standard
Per MPI rank memory allocation (min/avg/max) = 13.72 | 14.33 | 15.26 Mbytes
   Step          Time           CPU            Temp          PotEng         KinEng         TotEng         Press          Volume    
         0   0              0              301.52852      8501.707       3035.2451      11536.952      61236.348      87120        
       100   100            0.4360792      307.80226      8481.3068      3098.3977      11579.705      61279.962      87120        
       200   200            0.88616445     311.21899      8567.6464      3132.7912      11700.438      61817.168      87120        
       300   300            1.338805       321.71432      8651.6678      3238.4392      11890.107      62343.288      87120        
       400   400            1.7956244      330.53143      8705.7967      3327.194       12032.991      62773.895      87120        
       500   500            2.2701323      334.38829      8800.143       3366.0179      12166.161      63356.292      87120        
       600   600            2.7758591      342.21583      8799.0616      3444.8114      12243.873      63579.519      87120        
       700   700            3.3078524      336.10081      8919.2367      3383.2565      12302.493      64250.986      87120        
       800   800            3.8795669      336.38499      8965.4009      3386.117       12351.518      64701.372      87120        
       900   900            4.4834026      331.52548      9036.1441      3337.2003      12373.344      65205.207      87120        
      1000   1000           5.1184614      327.17969      9116.4946      3293.4547      12409.949      65801.088      87120        
      1100   1100           5.7672542      320.46214      9254.7444      3225.8345      12480.579      66526.09       87120        
      1200   1200           6.460021       314.49935      9422.354       3165.8119      12588.166      67350.914      87120        
      1300   1300           7.1829901      303.78279      9733.2425      3057.9369      12791.179      68764.872      87120        
      1400   1400           7.9542765      296.5172       10072.728      2984.8001      13057.528      70284.077      87120        
      1500   1500           8.7644403      290.44861      10459.968      2923.7125      13383.68       72008.657      87120        
      1600   1600           9.6120285      288.38964      10836.772      2902.9865      13739.758      73541.302      87120        
      1700   1700           10.464618      306.42307      10971.515      3084.5146      14056.029      74187.996      87120        
      1800   1800           11.36854       301.44912      11174.332      3034.4458      14208.778      74867.347      87120        
      1900   1900           12.28655       307.23266      11092.161      3092.664       14184.825      74584.742      87120        
      2000   2000           13.203496      312.74001      10782.068      3148.1021      13930.17       73363.078      87120        
      2100   2100           14.093567      301.23399      10440.265      3032.2802      13472.545      71881.357      87120        
      2200   2200           14.966034      295.90578      10041.196      2978.6454      13019.841      70236.873      87120        
      2300   2300           15.84265       291.78796      9665.3275      2937.1947      12602.522      68585.548      87120        
      2400   2400           16.671532      285.66759      9499.2632      2875.5858      12374.849      67736.953      87120        
      2500   2500           17.460446      297.58316      9255.5461      2995.5303      12251.076      66678.354      87120        
      2600   2600           18.230689      296.65509      9113.4693      2986.1881      12099.657      65864.412      87120        
      2700   2700           18.994354      294.5444       9029.7594      2964.9416      11994.701      65326.96       87120        
      2800   2800           19.737992      289.40022      9040.1938      2913.1592      11953.353      65171.905      87120        
      2900   2900           20.46246       296.49833      8945.665       2984.6102      11930.275      64719.32       87120        
      3000   3000           21.190634      296.66941      8925.4378      2986.3323      11911.77       64529.245      87120        
      3100   3100           21.879962      298.24462      8930.3954      3002.1887      11932.584      64492.915      87120        
      3200   3200           22.567232      301.8358       8950.7807      3038.3382      11989.119      64535.743      87120        
      3300   3300           23.252576      311.54023      8919.4558      3136.0248      12055.481      64422.479      87120        
      3400   3400           23.942556      298.39301      9044.2895      3003.6824      12047.972      64877.114      87120        
      3500   3500           24.624912      299.33904      9009.7021      3013.2053      12022.907      64847.523      87120        
      3600   3600           25.329419      298.27251      9047.85        3002.4694      12050.319      65069.011      87120        
      3700   3700           26.053066      304.19567      9077.8553      3062.0931      12139.948      65326.374      87120        
      3800   3800           26.793844      300.50657      9224.6235      3024.9579      12249.581      65980.027      87120        
      3900   3900           27.536598      304.90808      9327.9287      3069.2644      12397.193      66557.268      87120        
      4000   4000           28.307211      308.02613      9420.3583      3100.6513      12521.01       67081.723      87120        
      4100   4100           29.063218      303.8079       9580.0001      3058.1897      12638.19       67784.317      87120        
      4200   4200           29.837177      303.3397       9730.498       3053.4768      12783.975      68591.751      87120        
      4300   4300           30.637679      301.38378      9860.7783      3033.7881      12894.566      69182.003      87120        
      4400   4400           31.486141      299.65964      9977.2426      3016.4325      12993.675      69682.642      87120        
      4500   4500           32.346071      295.60731      10118.38       2975.641       13094.021      70240.242      87120        
      4600   4600           33.227076      296.123        10196.788      2980.8321      13177.62       70594.736      87120        
      4700   4700           34.113034      301.29037      10268.622      3032.8478      13301.47       70945.297      87120        
      4800   4800           35.00873       307.52804      10238.701      3095.6373      13334.339      70888.39       87120        
      4900   4900           35.889887      304.7412       10112.218      3067.5845      13179.802      70417.195      87120        
      5000   5000           36.788674      298.20073      10049.94       3001.7468      13051.687      70034.111      87120        
      5100   5100           37.63813       294.28709      9957.6351      2962.3514      12919.986      69539.644      87120        
      5200   5200           38.49284       295.80521      9813.683       2977.6331      12791.316      68957.533      87120        
      5300   5300           39.335812      301.68171      9687.3226      3036.7871      12724.11       68406.806      87120        
      5400   5400           40.155397      297.9115       9609.2739      2998.8354      12608.109      68007.914      87120        
      5500   5500           40.963558      295.07796      9484.9902      2970.3125      12455.303      67395.222      87120        
      5600   5600           41.744399      299.15276      9366.0956      3011.3302      12377.426      66867.856      87120        
      5700   5700           42.512225      300.18255      9289.8338      3021.6962      12311.53       66473.649      87120        
      5800   5800           43.289704      292.62971      9307.3103      2945.6679      12252.978      66427.19       87120        
      5900   5900           44.061412      293.5563       9298.5741      2954.9951      12253.569      66353.392      87120        
      6000   6000           44.833279      298.56553      9272.1661      3005.419       12277.585      66273.011      87120        
      6100   6100           45.587016      301.85877      9244.6955      3038.5694      12283.265      66172.399      87120        
      6200   6200           46.334594      302.09832      9251.3967      3040.9807      12292.377      66174.239      87120        
      6300   6300           47.114697      303.4427       9267.6986      3054.5135      12322.212      66161.836      87120        
      6400   6400           47.881249      308.05467      9330.4995      3100.9386      12431.438      66481.014      87120        
      6500   6500           48.645219      305.03439      9383.6829      3070.5358      12454.219      66716.891      87120        
      6600   6600           49.418514      301.84025      9394.5837      3038.3829      12432.967      66846.011      87120        
      6700   6700           50.183741      300.68507      9452.7726      3026.7547      12479.527      67131.27       87120        
      6800   6800           50.965992      302.20105      9486.846       3042.0148      12528.861      67296.979      87120        
      6900   6900           51.762911      297.1609       9578.0301      2991.2797      12569.31       67671.224      87120        
      7000   7000           52.568632      299.27117      9628.7353      3012.5221      12641.257      67917.857      87120        
      7100   7100           53.364097      303.14199      9690.3071      3051.4866      12741.794      68226.548      87120        
      7200   7200           54.162468      304.96053      9701.4034      3069.7924      12771.196      68408.757      87120        
      7300   7300           54.987984      296.86385      9780.3721      2988.2895      12768.662      68707.063      87120        
      7400   7400           55.833144      306.59616      9728.4412      3086.2569      12814.698      68596.979      87120        
      7500   7500           56.673727      297.52958      9809.1941      2994.9909      12804.185      68825.511      87120        
      7600   7600           57.52332       292.45092      9813.1619      2943.8682      12757.03       68822.253      87120        
      7700   7700           58.358259      291.37069      9788.5862      2932.9944      12721.581      68729.671      87120        
      7800   7800           59.192957      305.56674      9735.3664      3075.8945      12811.261      68610.348      87120        
      7900   7900           60.095012      307.42669      9715.9867      3094.6172      12810.604      68528.727      87120        
      8000   8000           60.94768       302.49998      9653.4971      3045.0239      12698.521      68209.626      87120        
      8100   8100           61.775805      294.8085       9629.0087      2967.6         12596.609      68078.645      87120        
      8200   8200           62.604675      293.04357      9620.4574      2949.8339      12570.291      67976.422      87120        
      8300   8300           63.407967      297.51402      9549.295       2994.8343      12544.129      67645.483      87120        
      8400   8400           64.221676      302.52932      9469.5994      3045.3193      12514.919      67336.131      87120        
      8500   8500           65.014796      298.8364       9513.7761      3008.1456      12521.922      67486.859      87120        
      8600   8600           65.838201      308.3659       9496.0743      3104.0715      12600.146      67420.185      87120        
      8700   8700           66.62897       303.93934      9472.4384      3059.5129      12531.951      67289.978      87120        
      8800   8800           67.426         299.81653      9425.8963      3018.0118      12443.908      67042.604      87120        
      8900   8900           68.225455      298.83556      9401.8379      3008.1372      12409.975      66923.844      87120        
      9000   9000           69.028499      296.42517      9449.765       2983.8738      12433.639      67105.348      87120        
      9100   9100           69.819968      303.93496      9486.6119      3059.4687      12546.081      67296.148      87120        
      9200   9200           70.598417      305.11916      9496.6636      3071.3891      12568.053      67362.733      87120        
      9300   9300           71.392889      299.90456      9498.5508      3018.8979      12517.449      67354.665      87120        
      9400   9400           72.17531       297.26229      9515.4487      2992.3004      12507.749      67396.462      87120        
      9500   9500           72.972776      302.59799      9516.4298      3046.0105      12562.44       67408.124      87120        
      9600   9600           73.782975      303.31689      9530.715       3053.2471      12583.962      67558.998      87120        
      9700   9700           74.594073      295.57327      9539.6285      2975.2983      12514.927      67618.736      87120        
      9800   9800           75.408137      296.48336      9564.6757      2984.4595      12549.135      67700.127      87120        
      9900   9900           76.253863      299.98107      9617.8355      3019.6681      12637.504      67929.864      87120        
     10000   10000          77.089543      300.53175      9677.9219      3025.2114      12703.133      68195.596      87120        
     10100   10100          77.907189      300.09836      9720.6744      3020.8488      12741.523      68372.373      87120        
     10200   10200          78.746472      306.38934      9653.6032      3084.175       12737.778      68241.635      87120        
     10300   10300          79.576085      297.33054      9706.6192      2992.9873      12699.607      68432.919      87120        
     10400   10400          80.417727      291.64337      9749.47        2935.7392      12685.209      68534.145      87120        
     10500   10500          81.256419      300.93204      9735.1654      3029.2407      12764.406      68500.548      87120        
     10600   10600          82.079093      306.42899      9714.8988      3084.5741      12799.473      68379.244      87120        
     10700   10700          82.907381      298.63294      9726.799       3006.0976      12732.897      68463.811      87120        
     10800   10800          83.746063      301.20365      9651.2245      3031.9748      12683.199      68176.456      87120        
     10900   10900          84.57447       300.88893      9628.0074      3028.8068      12656.814      68088.245      87120        
     11000   11000          85.393792      297.8511       9642.6091      2998.2274      12640.837      68044.499      87120        
     11100   11100          86.193685      305.35445      9590.5198      3073.7576      12664.277      67862.564      87120        
     11200   11200          86.991843      305.73229      9574.9374      3077.5611      12652.498      67762.387      87120        
     11300   11300          87.786288      302.66019      9540.7229      3046.6366      12587.36       67654.984      87120        
     11400   11400          88.587155      291.54294      9513.0981      2934.7283      12447.826      67511.136      87120        
     11500   11500          89.39724       295.6297       9471.4826      2975.8664      12447.349      67344.733      87120        
     11600   11600          90.203977      302.05766      9465.2195      3040.5715      12505.791      67213.502      87120        
     11700   11700          91.000592      301.45641      9468.8748      3034.5191      12503.394      67216.979      87120        
     11800   11800          91.798571      301.50946      9459.3117      3035.0532      12494.365      67209.749      87120        
     11900   11900          92.591026      296.87274      9489.1247      2988.3791      12477.504      67283.997      87120        
     12000   12000          93.386754      302.68928      9469.0095      3046.9295      12515.939      67285.661      87120        
     12100   12100          94.167407      303.67643      9518.0816      3056.8664      12574.948      67495.415      87120        
     12200   12200          94.951057      304.79408      9531.5759      3068.1168      12599.693      67573.291      87120        
     12300   12300          95.739935      294.82248      9577.2647      2967.7408      12545.005      67687.659      87120        
     12400   12400          96.536732      295.38327      9572.8743      2973.3858      12546.26       67693.312      87120        
     12500   12500          97.333587      299.01971      9610.7891      3009.9909      12620.78       67907.406      87120        
     12600   12600          98.136106      302.23645      9645.7201      3042.3712      12688.091      68069.899      87120        
     12700   12700          98.94124       309.80986      9687.8665      3118.6066      12806.473      68250.17       87120        
     12800   12800          99.733994      306.84956      9693.317       3088.8076      12782.125      68233.653      87120        
     12900   12900          100.54689      297.88255      9685.7191      2998.544       12684.263      68159.604      87120        
     13000   13000          101.37511      295.88301      9695.8626      2978.4163      12674.279      68250.14       87120        
     13100   13100          102.17069      304.79454      9624.6889      3068.1214      12692.81       67979.186      87120        
     13200   13200          102.98939      296.81557      9670.9166      2987.8036      12658.72       68159.268      87120        
     13300   13300          103.79969      294.12884      9618.017       2960.7584      12578.775      67958.054      87120        
     13400   13400          104.59172      295.29096      9655.8581      2972.4565      12628.315      68073.478      87120        
     13500   13500          105.40036      303.53299      9644.3284      3055.4224      12699.751      68032.49       87120        
     13600   13600          106.2113       301.20384      9629.6754      3031.9768      12661.652      68005.888      87120        
     13700   13700          107.01309      295.2744       9596.9603      2972.2898      12569.25       67930.008      87120        
     13800   13800          107.82722      292.30675      9605.7875      2942.4169      12548.204      67874.406      87120        
     13900   13900          108.62348      302.35274      9528.6191      3043.5418      12572.161      67559.002      87120        
     14000   14000          109.4263       301.11164      9503.3342      3031.0487      12534.383      67452.728      87120        
     14100   14100          110.21373      307.36565      9456.7825      3094.0027      12550.785      67319.974      87120        
     14200   14200          110.99317      299.17272      9540.2513      3011.5311      12551.782      67565.318      87120        
     14300   14300          111.78405      298.16293      9627.4984      3001.3664      12628.865      67810.827      87120        
     14400   14400          112.56494      307.53586      9546.852       3095.7161      12642.568      67608.325      87120        
     14500   14500          113.36474      299.46431      9525.6962      3014.4663      12540.162      67563.497      87120        
     14600   14600          114.14965      300.95333      9497.5724      3029.4551      12527.027      67481.291      87120        
     14700   14700          114.9454       292.85065      9600.2462      2947.8919      12548.138      67757.033      87120        
     14800   14800          115.74258      299.88141      9604.2725      3018.6649      12622.937      67752.466      87120        
     14900   14900          116.53339      299.86965      9621.5179      3018.5466      12640.064      67801.679      87120        
     15000   15000          117.33496      300.63265      9623.1783      3026.227       12649.405      67897.89       87120        
     15100   15100          118.12377      302.46909      9587.1969      3044.713       12631.91       67772.253      87120        
     15200   15200          118.91786      296.68297      9586.0744      2986.4688      12572.543      67746.292      87120        
     15300   15300          119.71408      292.5169       9575.2302      2944.5323      12519.763      67649.109      87120        
     15400   15400          120.51096      297.72273      9516.412       2996.9352      12513.347      67487.004      87120        
     15500   15500          121.31351      300.97844      9576.2919      3029.7078      12606          67745.395      87120        
     15600   15600          122.11275      304.195        9597.5343      3062.0864      12659.621      67840.654      87120        
     15700   15700          122.91353      300.54758      9591.0358      3025.3707      12616.407      67763.047      87120        
     15800   15800          123.70962      296.70778      9546.1458      2986.7185      12532.864      67557.962      87120        
     15900   15900          124.49599      300.64991      9534.7961      3026.4008      12561.197      67528.012      87120        
     16000   16000          125.31278      304.32184      9620.9188      3063.3631      12684.282      67945.211      87120        
     16100   16100          126.0864       305.50797      9585.2063      3075.303       12660.509      67807.786      87120        
     16200   16200          126.87967      300.85859      9587.247       3028.5014      12615.748      67782.858      87120        
     16300   16300          127.67564      297.88164      9570.1431      2998.5349      12568.678      67618.627      87120        
     16400   16400          128.46448      302.46289      9572.9156      3044.6506      12617.566      67720.507      87120        
     16500   16500          129.2644       308.58197      9620.6134      3106.2464      12726.86       67876.639      87120        
     16600   16600          130.0646       307.38899      9596.6044      3094.2377      12690.842      67778.671      87120        
     16700   16700          130.85039      300.16525      9577.3873      3021.5221      12598.909      67699.916      87120        
     16800   16800          131.65351      300.76003      9557.806       3027.5093      12585.315      67689.687      87120        
     16900   16900          132.4573       296.36483      9575.2386      2983.2663      12558.505      67692.568      87120        
     17000   17000          133.26806      296.66769      9553.1102      2986.315       12539.425      67673.887      87120        
     17100   17100          134.05197      293.67745      9618.6424      2956.2146      12574.857      67866.695      87120        
     17200   17200          134.8511       300.30601      9648.3534      3022.9391      12671.292      67972.823      87120        
     17300   17300          135.65186      303.88155      9585.7771      3058.9311      12644.708      67742.284      87120        
     17400   17400          136.45611      301.6102       9525.5458      3036.0673      12561.613      67486.653      87120        
     17500   17500          137.25252      294.88033      9554.9356      2968.323       12523.259      67580.653      87120        
     17600   17600          138.04938      293.44201      9604.9368      2953.8446      12558.781      67768.701      87120        
     17700   17700          138.84571      305.11557      9527.6336      3071.353       12598.987      67552.195      87120        
     17800   17800          139.62979      304.60903      9515.307       3066.254       12581.561      67480.989      87120        
     17900   17900          140.42715      290.97794      9614.631       2929.0408      12543.672      67706.256      87120        
     18000   18000          141.23993      296.49616      9589.7413      2984.5883      12574.33       67640.603      87120        
     18100   18100          142.02475      301.71053      9587.4789      3037.0772      12624.556      67745.284      87120        
     18200   18200          142.82761      302.68347      9552.1996      3046.871       12599.071      67619.145      87120        
     18300   18300          143.62512      298.31807      9570.8896      3002.928       12573.818      67696.947      87120        
     18400   18400          144.42674      300.24054      9542.8716      3022.2799      12565.152      67590.297      87120        
     18500   18500          145.22747      302.10115      9546.2739      3041.0093      12587.283      67602.956      87120        
     18600   18600          146.01037      294.1663       9534.8952      2961.1355      12496.031      67461.172      87120        
     18700   18700          146.82361      293.21408      9523.877       2951.5502      12475.427      67543.579      87120        
     18800   18800          147.62267      293.66623      9623.1486      2956.1017      12579.25       67853.786      87120        
     18900   18900          148.42894      305.75082      9572.2175      3077.7476      12649.965      67700.343      87120        
     19000   19000          149.23213      303.22468      9584.0245      3052.319       12636.343      67720.017      87120        
     19100   19100          150.01772      293.13246      9628.8583      2950.7287      12579.587      67945.835      87120        
     19200   19200          150.80841      295.81444      9596.8464      2977.726       12574.572      67912.326      87120        
     19300   19300          151.60647      299.55925      9616.1283      3015.422       12631.55       67981.437      87120        
     19400   19400          152.40203      304.41457      9692.9973      3064.2966      12757.294      68162.819      87120        
     19500   19500          153.18473      307.36006      9635.4353      3093.9464      12729.382      67954.211      87120        
     19600   19600          153.98501      303.23666      9575.5637      3052.4395      12628.003      67664.151      87120        
     19700   19700          154.78988      296.96772      9551.367       2989.3351      12540.702      67558.475      87120        
     19800   19800          155.58684      298.88032      9551.7835      3008.5878      12560.371      67639.526      87120        
     19900   19900          156.39618      304.26326      9575.948       3062.7735      12638.721      67786.686      87120        
     20000   20000          157.20907      304.46937      9574.4699      3064.8482      12639.318      67800.242      87120        
     20100   20100          157.99985      295.62192      9537.7915      2975.7881      12513.58       67542.511      87120        
     20200   20200          158.80302      294.18698      9546.4378      2961.3436      12507.781      67514.793      87120        
     20300   20300          159.59688      301.06505      9510.677       3030.5797      12541.257      67353.239      87120        
     20400   20400          160.40161      302.40034      9503.0106      3044.021       12547.032      67414.635      87120        
     20500   20500          161.19149      298.95244      9544.0298      3009.3137      12553.343      67655.848      87120        
     20600   20600          161.98025      305.73462      9478.0696      3077.5845      12555.654      67411.307      87120        
     20700   20700          162.77236      300.65043      9532.7676      3026.4061      12559.174      67418.496      87120        
     20800   20800          163.56677      300.17607      9575.9403      3021.631       12597.571      67466.635      87120        
     20900   20900          164.36425      304.15662      9534.9023      3061.7         12596.602      67454.24       87120        
     21000   21000          165.16214      299.54447      9509.956       3015.2732      12525.229      67499.417      87120        
     21100   21100          165.94652      299.39186      9513.7491      3013.737       12527.486      67563.192      87120        
     21200   21200          166.73598      304.87742      9489.5247      3068.9557      12558.48       67497.78       87120        
     21300   21300          167.53277      303.2296       9554.9993      3052.3685      12607.368      67641.545      87120        
     21400   21400          168.34421      300.91759      9636.0003      3029.0953      12665.096      67875.795      87120        
     21500   21500          169.14565      300.50235      9615.8629      3024.9154      12640.778      67902.874      87120        
     21600   21600          169.94676      296.41667      9581.0453      2983.7882      12564.833      67826.347      87120        
     21700   21700          170.75076      295.31495      9614.945       2972.6981      12587.643      67845.184      87120        
     21800   21800          171.55389      306.67435      9554.4201      3087.044       12641.464      67700.446      87120        
     21900   21900          172.35651      301.60633      9603.5414      3036.0283      12639.57       67818.534      87120        
     22000   22000          173.16625      302.86717      9587.7246      3048.7202      12636.445      67752.278      87120        
     22100   22100          173.95996      297.6392       9624.1106      2996.0944      12620.205      67907.004      87120        
     22200   22200          174.76237      296.63126      9576.7634      2985.9482      12562.712      67770.306      87120        
     22300   22300          175.55725      299.24772      9553.0665      3012.2861      12565.353      67744.048      87120        
     22400   22400          176.36645      302.74991      9610.3088      3047.5398      12657.849      67939.768      87120        
     22500   22500          177.15884      303.9553       9594.3553      3059.6735      12654.029      67816.18       87120        
     22600   22600          177.96575      296.8504       9582.8595      2988.1542      12571.014      67659.577      87120        
     22700   22700          178.75454      294.67831      9548.8219      2966.2895      12515.111      67572.703      87120        
     22800   22800          179.55706      290.47443      9598.6675      2923.9724      12522.64       67791.474      87120        
     22900   22900          180.36205      301.39816      9619.4153      3033.9328      12653.348      67900.707      87120        
     23000   23000          181.16974      302.39747      9628.6571      3043.9921      12672.649      67930.135      87120        
     23100   23100          181.962        305.12288      9528.7266      3071.4266      12600.153      67618.568      87120        
     23200   23200          182.76193      297.10429      9564.5371      2990.7099      12555.247      67679.976      87120        
     23300   23300          183.56057      295.21261      9629.7746      2971.6678      12601.442      67887.169      87120        
     23400   23400          184.35898      302.76994      9592.5372      3047.7414      12640.279      67758.107      87120        
     23500   23500          185.16153      302.71241      9575.8568      3047.1623      12623.019      67759.74       87120        
     23600   23600          185.96253      292.36283      9561.9165      2942.9814      12504.898      67710.612      87120        
     23700   23700          186.75288      294.86684      9584.5647      2968.1873      12552.752      67811.633      87120        
     23800   23800          187.55929      303.5159       9593.3922      3055.2504      12648.643      67817.469      87120        
     23900   23900          188.37923      301.50447      9621.4482      3035.0029      12656.451      67837.068      87120        
     24000   24000          189.20878      299.62374      9636.6906      3016.0712      12652.762      67955.409      87120        
     24100   24100          190.0156       304.52016      9623.1277      3065.3595      12688.487      68014.979      87120        
     24200   24200          190.83339      301.48074      9636.2763      3034.7641      12671.04       67998.305      87120        
     24300   24300          191.66046      298.67618      9599.5687      3006.5329      12606.102      67817.304      87120        
     24400   24400          192.49538      293.33926      9615.7405      2952.8104      12568.551      67869.033      87120        
     24500   24500          193.34226      301.05181      9603.1879      3030.4464      12633.634      67868.115      87120        
     24600   24600          194.16743      309.67071      9571.2884      3117.2059      12688.494      67819.388      87120        
     24700   24700          195.01491      304.45263      9562.8859      3064.6797      12627.566      67654.02       87120        
     24800   24800          195.87898      300.42453      9534.3038      3024.1321      12558.436      67497.581      87120        
     24900   24900          196.7318       301.15481      9512.1924      3031.4832      12543.676      67457.056      87120        
     25000   25000          197.58247      296.81663      9546.4784      2987.8143      12534.293      67592.851      87120        
     25100   25100          198.41373      296.73642      9548.6038      2987.0068      12535.611      67617.31       87120        
     25200   25200          199.25514      301.08518      9580.4134      3030.7823      12611.196      67720.271      87120        
     25300   25300          200.09086      296.96474      9660.2991      2989.3051      12649.604      67959.601      87120        
     25400   25400          200.9549       300.58371      9598.7658      3025.7344      12624.5        67874.247      87120        
     25500   25500          201.82495      297.03152      9574.4242      2989.9774      12564.402      67812.931      87120        
     25600   25600          202.68401      293.86454      9650.8521      2958.0979      12608.95       67978.583      87120        
     25700   25700          203.55869      301.96896      9645.0822      3039.6786      12684.761      67945.411      87120        
     25800   25800          204.41735      300.89127      9638.5954      3028.8304      12667.426      67935.009      87120        
     25900   25900          205.29536      303.18052      9599.706       3051.8744      12651.58       67842.323      87120        
     26000   26000          206.17376      291.34734      9633.2159      2932.7593      12565.975      67953.472      87120        
     26100   26100          207.0412       300.3119       9542.814       3022.9983      12565.812      67635.454      87120        
     26200   26200          207.90187      306.23205      9515.1706      3082.5917      12597.762      67535.758      87120        
     26300   26300          208.77784      301.15453      9570.9326      3031.4804      12602.413      67657.9        87120        
     26400   26400          209.64628      298.16992      9599.7631      3001.4367      12601.2        67819.544      87120        
     26500   26500          210.55524      301.75276      9564.8299      3037.5022      12602.332      67652.139      87120        
     26600   26600          211.43376      303.13607      9541.7071      3051.427       12593.134      67584.322      87120        
     26700   26700          212.29783      295.2483       9572.8623      2972.0271      12544.889      67658.883      87120        
     26800   26800          213.17874      293.57875      9583.8627      2955.2211      12539.084      67722.578      87120        
     26900   26900          214.05187      299.88744      9583.8917      3018.7256      12602.617      67724.6        87120        
     27000   27000          214.94571      303.26076      9616.3382      3052.6822      12669.02       67908.562      87120        
     27100   27100          215.81385      304.11755      9602.402       3061.3067      12663.709      67826.445      87120        
     27200   27200          216.71937      293.53131      9596.2187      2954.7436      12550.962      67776.218      87120        
     27300   27300          217.60712      294.95478      9609.9912      2969.0725      12579.064      67827.144      87120        
     27400   27400          218.50274      303.85425      9579.3517      3058.6563      12638.008      67776.526      87120        
     27500   27500          219.33088      297.22958      9632.8672      2991.9711      12624.838      67997.333      87120        
     27600   27600          220.11064      296.44727      9645.2305      2984.0962      12629.327      67998.511      87120        
     27700   27700          220.87782      300.30445      9599.9224      3022.9233      12622.846      67846.829      87120        
     27800   27800          221.76106      294.77118      9596.3652      2967.2243      12563.59       67852.905      87120        
     27900   27900          222.71116      291.9332       9618.0568      2938.6567      12556.713      67883.118      87120        
     28000   28000          223.66324      306.06178      9574.961       3080.8777      12655.839      67800.619      87120        
     28100   28100          224.594        300.1907       9614.9164      3021.7783      12636.695      67930.893      87120        
     28200   28200          225.5529       300.39101      9549.8631      3023.7946      12573.658      67697.327      87120        
     28300   28300          226.50348      295.55674      9550.3006      2975.1319      12525.433      67624.265      87120        
     28400   28400          227.45299      294.09771      9592.3857      2960.445       12552.831      67726.246      87120        
     28500   28500          228.4318       306.43402      9552.5527      3084.6247      12637.177      67646.544      87120        
     28600   28600          229.41152      302.97113      9554.2427      3049.7666      12604.009      67724.36       87120        
     28700   28700          230.38851      294.59512      9594.1947      2965.4521      12559.647      67807.443      87120        
     28800   28800          231.34902      297.55953      9579.6988      2995.2924      12574.991      67662.237      87120        
     28900   28900          232.35958      306.35212      9500.2668      3083.8003      12584.067      67408.73       87120        
     29000   29000          233.35412      296.94207      9580.6546      2989.0769      12569.732      67745.589      87120        
     29100   29100          234.2792       301.72141      9538.1366      3037.1867      12575.323      67664.622      87120        
     29200   29200          235.21486      300.58281      9586.7833      3025.7253      12612.509      67813.862      87120        
     29300   29300          236.09457      301.43446      9603.429       3034.2983      12637.727      67807.465      87120        
     29400   29400          236.89581      296.84557      9620.2914      2988.1056      12608.397      67874.156      87120        
     29500   29500          237.65843      303.9          9599.8126      3059.1168      12658.929      67863.825      87120        
     29600   29600          238.57517      306.5942       9571.0544      3086.2372      12657.292      67622.13       87120        
     29700   29700          239.70586      297.32529      9558.4915      2992.9345      12551.426      67512.853      87120        
     29800   29800          240.82038      299.11329      9518.6832      3010.9329      12529.616      67461.168      87120        
     29900   29900          241.95066      298.39229      9555.0121      3003.6752      12558.687      67607.515      87120        
     30000   30000          242.99549      298.24734      9557.734       3002.216       12559.95       67668.87       87120        
     30100   30100          244.01796      302.90122      9499.2476      3049.063       12548.311      67385.224      87120        
     30200   30200          245.01877      297.75966      9516.4269      2997.307       12513.734      67351.63       87120        
     30300   30300          246.00806      292.83619      9573.8449      2947.7463      12521.591      67574.163      87120        
     30400   30400          247.08263      301.75869      9621.1261      3037.562       12658.688      67909.519      87120        
     30500   30500          248.10197      310.80996      9574.8725      3128.6738      12703.546      67807.363      87120        
     30600   30600          249.09936      296.179        9643.9221      2981.3958      12625.318      67947.899      87120        
     30700   30700          250.16782      296.45512      9620.0125      2984.1753      12604.188      67825.676      87120        
     30800   30800          251.06482      302.75979      9575.9423      3047.6393      12623.582      67653.912      87120        
     30900   30900          251.8915       302.38318      9629.2673      3043.8482      12673.116      68017.863      87120        
     31000   31000          252.71667      301.46581      9679.4758      3034.6138      12714.09       68285.108      87120        
     31100   31100          253.71226      303.77712      9686.2045      3057.8799      12744.084      68282.738      87120        
     31200   31200          254.73023      307.04155      9608.3263      3090.7403      12699.067      67906.978      87120        
     31300   31300          255.69242      289.54067      9694.0672      2914.573       12608.64       68068.254      87120        
     31400   31400          256.64646      294.9031       9679.5386      2968.5523      12648.091      68182.032      87120        
     31500   31500          257.58861      301.97939      9665.0071      3039.7836      12704.791      68282.794      87120        
     31600   31600          258.51969      302.15609      9638.0061      3041.5623      12679.568      68064.049      87120        
     31700   31700          259.46978      295.56548      9612.5729      2975.2199      12587.793      67853.851      87120        
     31800   31800          260.40829      291.16848      9591.8626      2930.9588      12522.821      67758.291      87120        
     31900   31900          261.37156      295.00755      9604.1325      2969.6037      12573.736      67884.961      87120        
     32000   32000          262.33054      299.01779      9669.3765      3009.9715      12679.348      68112.736      87120        
     32100   32100          263.27014      304.31292      9611.3239      3063.2734      12674.597      67854.284      87120        
     32200   32200          264.22099      297.50025      9596.7428      2994.6957      12591.438      67727.341      87120        
     32300   32300          265.16852      292.91356      9564.6895      2948.5251      12513.215      67646.161      87120        
     32400   32400          266.12826      299.45846      9497.7381      3014.4074      12512.145      67375.126      87120        
     32500   32500          266.9002       309.53486      9517.6803      3115.8384      12633.519      67473.198      87120        
     32600   32600          267.65498      310.57678      9476.604       3126.3266      12602.931      67297.627      87120        
     32700   32700          268.42753      300.31141      9504.1592      3022.9934      12527.153      67448.778      87120        
     32800   32800          269.35356      301.09478      9493.0309      3030.8789      12523.91       67453.329      87120        
     32900   32900          270.28907      297.97861      9567.0651      2999.5109      12566.576      67673.706      87120        
     33000   33000          271.22575      306.00583      9554.8129      3080.3145      12635.127      67599.692      87120        
     33100   33100          272.16259      307.66419      9529.996       3097.0079      12627.004      67532.048      87120        
     33200   33200          273.12201      297.55003      9532.0953      2995.1968      12527.292      67551.273      87120        
     33300   33300          274.07485      296.10277      9560.9489      2980.6284      12541.577      67623.31       87120        
     33400   33400          274.99415      301.90636      9580.2989      3039.0485      12619.347      67757.991      87120        
     33500   33500          275.91329      311.52428      9494.0775      3135.8643      12629.942      67446.811      87120        
     33600   33600          276.85158      298.86927      9565.9916      3008.4765      12574.468      67699.986      87120        
     33700   33700          277.7746       297.29742      9594.0552      2992.654       12586.709      67819.187      87120        
     33800   33800          278.71574      298.38806      9666.0151      3003.6326      12669.648      68033.208      87120        
     33900   33900          279.67024      303.88702      9647.2851      3058.9862      12706.271      67918.185      87120        
     34000   34000          280.61104      300.91441      9588.545       3029.0633      12617.608      67722.229      87120        
     34100   34100          281.53888      295.30641      9567.0686      2972.6121      12539.681      67718.074      87120        
     34200   34200          282.33122      293.38919      9568.2713      2953.3129      12521.584      67701.997      87120        
     34300   34300          283.06055      302.59146      9568.9743      3045.9448      12614.919      67624.338      87120        
     34400   34400          283.80757      307.88334      9564.1251      3099.2139      12663.339      67609.422      87120        
     34500   34500          284.67004      304.82343      9548.1684      3068.4122      12616.581      67641.419      87120        
     34600   34600          285.60338      297.6652       9589.4311      2996.3561      12585.787      67756.765      87120        
     34700   34700          286.53196      298.59885      9560.1359      3005.7544      12565.89       67616.363      87120        
     34800   34800          287.47744      297.60339      9572.013       2995.7339      12567.747      67709.017      87120        
     34900   34900          288.42386      302.71657      9601.426       3047.2042      12648.63       67812.243      87120        
     35000   35000          289.37356      308.25033      9612.601       3102.9081      12715.509      67850.927      87120        
     35100   35100          290.31463      298.4334       9628.4313      3004.089       12632.52       67949.169      87120        
     35200   35200          291.25448      298.02261      9593.3781      2999.9539      12593.332      67838.47       87120        
     35300   35300          292.1753       295.83164      9645.6894      2977.8992      12623.589      67950.916      87120        
     35400   35400          293.12762      303.34409      9604.1592      3053.5209      12657.68       67865.46       87120        
     35500   35500          294.07182      292.65196      9674.8275      2945.8918      12620.719      68170.787      87120        
     35600   35600          295.03476      293.34526      9605.7459      2952.8707      12558.617      67853.813      87120        
     35700   35700          295.98812      295.96394      9539.1156      2979.2309      12518.347      67546.263      87120        
     35800   35800          296.84737      303.46083      9567.718       3054.696       12622.414      67773.596      87120        
     35900   35900          297.61457      301.41259      9613.4942      3034.0781      12647.572      67972.114      87120        
     36000   36000          298.38795      303.86467      9567.4934      3058.7612      12626.255      67791.486      87120        
     36100   36100          299.23201      300.87528      9564.8652      3028.6694      12593.535      67639.641      87120        
     36200   36200          300.16786      296.50911      9576.5047      2984.7187      12561.223      67699.699      87120        
     36300   36300          301.08987      293.73992      9595.289       2956.8434      12552.132      67800.876      87120        
     36400   36400          302.04129      303.89171      9579.6318      3059.0334      12638.665      67791.785      87120        
     36500   36500          302.97407      300.57635      9606.8413      3025.6603      12632.502      67826.639      87120        
     36600   36600          303.91162      295.11007      9615.7114      2970.6357      12586.347      67763.128      87120        
     36700   36700          304.84662      299.52017      9575.165       3015.0286      12590.194      67663.583      87120        
     36800   36800          305.78881      305.02908      9577.1434      3070.4823      12647.626      67680.127      87120        
     36900   36900          306.73177      306.26902      9564.1062      3082.9638      12647.07       67651.034      87120        
     37000   37000          307.67292      298.85867      9552.3222      3008.3698      12560.692      67584.069      87120        
     37100   37100          308.57822      293.8129       9592.026       2957.5781      12549.604      67758.713      87120        
     37200   37200          309.50047      299.12557      9593.7483      3011.0565      12604.805      67785.622      87120        
     37300   37300          310.41186      303.8086       9576.4302      3058.1967      12634.627      67695.176      87120        
     37400   37400          311.29806      301.37526      9563.5717      3033.7023      12597.274      67607.248      87120        
     37500   37500          312.05694      287.99997      9552.8061      2899.064       12451.87       67557.723      87120        
     37600   37600          312.81016      289.97824      9596.3565      2918.9777      12515.334      67789.224      87120        
     37700   37700          313.6016       303.58101      9572.8203      3055.9058      12628.726      67767.701      87120        
     37800   37800          314.54264      303.59568      9594.2911      3056.0534      12650.345      67791.181      87120        
     37900   37900          315.4884       295.54492      9635.9887      2975.013       12611.002      67878.444      87120        
     38000   38000          316.46923      295.2822       9673.4395      2972.3684      12645.808      68045.354      87120        
     38100   38100          317.41507      304.26551      9667.4349      3062.7961      12730.231      67994.695      87120        
     38200   38200          318.34675      302.39852      9658.2476      3044.0026      12702.25       67893.725      87120        
     38300   38300          319.27393      295.18436      9680.5168      2971.3835      12651.9        68086.813      87120        
     38400   38400          320.20711      300.18243      9595.048       3021.695       12616.743      67867.154      87120        
     38500   38500          321.14371      303.22009      9538.7749      3052.2727      12591.048      67555.106      87120        
     38600   38600          322.07821      298.74727      9581.1645      3007.2484      12588.413      67697.802      87120        
     38700   38700          323.01358      291.52918      9622.4682      2934.5898      12557.058      67770.136      87120        
     38800   38800          323.94597      294.92109      9617.8134      2968.7333      12586.547      67747.923      87120        
     38900   38900          324.88183      304.13926      9565.1511      3061.5252      12626.676      67633.401      87120        
     39000   39000          325.81486      295.58744      9608.97        2975.441       12584.411      67769.284      87120        
     39100   39100          326.54635      295.43453      9526.1272      2973.9017      12500.029      67472.136      87120        
     39200   39200          327.29188      298.30756      9507.4256      3002.8223      12510.248      67345.367      87120        
     39300   39300          328.04727      309.82621      9515.1051      3118.7712      12633.876      67517.189      87120        
     39400   39400          328.94023      303.60549      9539.787       3056.1522      12595.939      67516.046      87120        
     39500   39500          329.8671       301.25026      9487.3736      3032.444       12519.818      67383.369      87120        
     39600   39600          330.79564      299.76625      9470.159       3017.5057      12487.665      67263.219      87120        
     39700   39700          331.74445      299.19449      9494.5835      3011.7503      12506.334      67280.583      87120        
     39800   39800          332.68672      305.19625      9517.0276      3072.1652      12589.193      67354.197      87120        
     39900   39900          333.61285      308.48357      9530.7749      3105.2559      12636.031      67423.101      87120        
     40000   40000          334.56296      291.62037      9646.6783      2935.5076      12582.186      67893.036      87120        
     40100   40100          335.48111      305.63739      9536.2758      3076.6057      12612.882      67578.524      87120        
     40200   40200          336.42312      304.40758      9532.6161      3064.2263      12596.842      67531.232      87120        
     40300   40300          337.34501      292.49592      9570.5305      2944.3211      12514.852      67664.626      87120        
     40400   40400          338.28112      294.01677      9521.7184      2959.6303      12481.349      67432.978      87120        
     40500   40500          339.21619      294.97606      9555.2879      2969.2867      12524.575      67518.67       87120        
     40600   40600          340.13414      301.33422      9645.0377      3033.2892      12678.327      67921.725      87120        
     40700   40700          340.95674      302.36114      9651.4327      3043.6263      12695.059      68010.31       87120        
     40800   40800          341.71466      299.25589      9618.9423      3012.3683      12631.311      67975.401      87120        
     40900   40900          342.4781       292.71605      9647.4216      2946.537       12593.959      68009.482      87120        
     41000   41000          343.39154      306.42564      9551.0198      3084.5404      12635.56       67603.539      87120        
     41100   41100          344.34386      297.84033      9627.5443      2998.119       12625.663      67907.635      87120        
     41200   41200          345.30667      297.21613      9586.4895      2991.8357      12578.325      67860.14       87120        
     41300   41300          346.25378      284.95344      9640.8857      2868.397       12509.283      67977.105      87120        
     41400   41400          347.19001      295.25449      9660.5524      2972.0894      12632.642      68034.427      87120        
     41500   41500          348.1368       299.29396      9677.7373      3012.7516      12690.489      68117.631      87120        
     41600   41600          349.08666      306.02763      9591.3138      3080.5339      12671.848      67865.059      87120        
     41700   41700          350.03703      297.14182      9606.5601      2991.0877      12597.648      67934.881      87120        
     41800   41800          350.98304      305.11045      9493.4939      3071.3015      12564.795      67474.572      87120        
     41900   41900          351.92457      299.72582      9530.6943      3017.0987      12547.793      67471.001      87120        
     42000   42000          352.8669       298.57089      9527.3127      3005.473       12532.786      67487.075      87120        
     42100   42100          353.79232      302.84151      9548.4138      3048.4619      12596.876      67631.396      87120        
     42200   42200          354.72371      303.91943      9578.8841      3059.3124      12638.197      67780.518      87120        
     42300   42300          355.5503       297.76473      9564.4405      2997.358       12561.798      67623.872      87120        
     42400   42400          356.30406      298.21716      9507.885       3001.9123      12509.797      67396.656      87120        
     42500   42500          357.03831      294.04604      9578.8986      2959.9249      12538.823      67734.145      87120        
     42600   42600          357.86771      302.71625      9500.6826      3047.201       12547.884      67382.219      87120        
     42700   42700          358.8169       297.57741      9526.0354      2995.4724      12521.508      67483.835      87120        
     42800   42800          359.73945      298.31116      9553.2921      3002.8585      12556.151      67644.082      87120        
     42900   42900          360.67444      306.32037      9592.6972      3083.4808      12676.178      67790.702      87120        
     43000   43000          361.6048       304.58829      9581.4004      3066.0453      12647.446      67672.69       87120        
     43100   43100          362.5231       297.78416      9580.3749      2997.5536      12577.928      67576.301      87120        
     43200   43200          363.44921      300.1819       9567.0223      3021.6897      12588.712      67677.819      87120        
     43300   43300          364.3937       299.48262      9595.9134      3014.6506      12610.564      67918.389      87120        
     43400   43400          365.33851      297.80672      9646.8311      2997.7807      12644.612      67989.262      87120        
     43500   43500          366.27496      306.60802      9610.2904      3086.3763      12696.667      67804.282      87120        
     43600   43600          367.21258      302.19044      9607.4512      3041.908       12649.359      67876.897      87120        
     43700   43700          368.14968      298.76901      9592.5763      3007.4673      12600.044      67861.686      87120        
     43800   43800          369.09493      296.72411      9648.0031      2986.8829      12634.886      68060.3        87120        
     43900   43900          369.99794      308.50805      9582.1328      3105.5024      12687.635      67838.88       87120        
     44000   44000          370.7604       300.34276      9626.0625      3023.309       12649.371      67885.89       87120        
     44100   44100          371.5096       303.08705      9582.6671      3050.9336      12633.601      67708.072      87120        
     44200   44200          372.29849      303.13639      9591.723       3051.4302      12643.153      67837.99       87120        
     44300   44300          373.23546      304.47668      9574.9314      3064.9218      12639.853      67805.046      87120        
     44400   44400          374.17954      294.69161      9620.0092      2966.4234      12586.433      67941.328      87120        
     44500   44500          375.13439      291.04251      9566.8334      2929.6908      12496.524      67650.427      87120        
     44600   44600          376.08487      297.57996      9548.4816      2995.498       12543.98       67588.349      87120        
     44700   44700          377.02958      304.58244      9551.5106      3065.9864      12617.497      67646.174      87120        
     44800   44800          377.96595      302.59169      9568.6277      3045.9472      12614.575      67764.576      87120        
     44900   44900          378.88906      298.96356      9572.238       3009.4256      12581.664      67727.347      87120        
     45000   45000          379.83076      294.40194      9631.0561      2963.5075      12594.564      67985.872      87120        
     45100   45100          380.7583       308.08428      9597.0332      3101.2366      12698.27       67776.402      87120        
     45200   45200          381.68909      305.16478      9624.7315      3071.8484      12696.58       67832.373      87120        
     45300   45300          382.62018      296.27146      9644.1893      2982.3265      12626.516      67933.21       87120        
     45400   45400          383.54191      296.79069      9620.829       2987.5531      12608.382      67911.575      87120        
     45500   45500          384.48455      300.55385      9613.3988      3025.4339      12638.833      67911.679      87120        
     45600   45600          385.24424      298.30148      9667.788       3002.761       12670.549      68017.394      87120        
     45700   45700          386.00397      308.47895      9628.3684      3105.2094      12733.578      67968.617      87120        
     45800   45800          386.77263      302.14952      9651.3352      3041.4961      12692.831      68054.8        87120        
     45900   45900          387.7119       298.98641      9585.8158      3009.6557      12595.471      67811.067      87120        
     46000   46000          388.65821      299.0799       9590.2946      3010.5968      12600.891      67744.07       87120        
     46100   46100          389.58936      304.73421      9580.3992      3067.5141      12647.913      67791.673      87120        
     46200   46200          390.52907      304.44205      9653.2796      3064.5732      12717.853      68135.692      87120        
     46300   46300          391.46564      310.96529      9621.0017      3130.2374      12751.239      67967.435      87120        
     46400   46400          392.39428      296.97087      9631.2532      2989.3669      12620.62       67888.187      87120        
     46500   46500          393.3366       299.04451      9582.5225      3010.2406      12592.763      67696.517      87120        
     46600   46600          394.27216      300.94806      9594.9669      3029.402       12624.369      67729.014      87120        
     46700   46700          395.19199      304.80402      9575.5122      3068.2169      12643.729      67681.116      87120        
     46800   46800          396.13021      293.30048      9612.3956      2952.42        12564.816      67765.015      87120        
     46900   46900          397.06302      293.90791      9558.2729      2958.5345      12516.807      67541.793      87120        
     47000   47000          397.98467      300.71791      9583.9484      3027.0853      12611.034      67703.907      87120        
     47100   47100          398.90358      303.42406      9612.3833      3054.3259      12666.709      67806.383      87120        
     47200   47200          399.69489      299.65475      9597.7671      3016.3834      12614.15       67664.912      87120        
     47300   47300          400.44485      296.01536      9577.5577      2979.7485      12557.306      67597.728      87120        
     47400   47400          401.19438      299.1027       9545.6559      3010.8262      12556.482      67509.976      87120        
     47500   47500          402.08829      306.00174      9558.0365      3080.2734      12638.31       67633.72       87120        
     47600   47600          403.02526      311.862        9588.0593      3139.2638      12727.323      67746.808      87120        
     47700   47700          403.95911      302.70186      9636.2296      3047.0561      12683.286      67850.896      87120        
     47800   47800          404.881        302.41347      9595.541       3044.1531      12639.694      67699.895      87120        
     47900   47900          405.82003      295.53572      9620.1341      2974.9203      12595.054      67811.25       87120        
     48000   48000          406.76869      300.49605      9601.5926      3024.852       12626.445      67747.254      87120        
     48100   48100          407.69472      305.74884      9610.2459      3077.7276      12687.974      67875.705      87120        
     48200   48200          408.63157      309.19249      9593.2249      3112.392       12705.617      67860.715      87120        
     48300   48300          409.56363      301.40535      9563.065       3034.0052      12597.07       67694.394      87120        
     48400   48400          410.50481      298.02155      9587.5325      2999.9432      12587.476      67738.673      87120        
     48500   48500          411.45549      301.58078      9610.711       3035.7711      12646.482      67871.582      87120        
     48600   48600          412.40665      304.93413      9632.0111      3069.5265      12701.538      67990.259      87120        
     48700   48700          413.36025      303.69913      9610.9628      3057.0949      12668.058      67961.537      87120        
     48800   48800          414.19506      294.7565       9592.0394      2967.0766      12559.116      67781.376      87120        
     48900   48900          414.95267      297.29552      9594.2233      2992.6349      12586.858      67763.643      87120        
     49000   49000          415.72105      299.56786      9630.5386      3015.5087      12646.047      67912.83       87120        
     49100   49100          416.47887      303.17201      9626.6656      3051.7887      12678.454      67974.537      87120        
     49200   49200          417.25504      298.65565      9605.4419      3006.3261      12611.768      67856.651      87120        
     49300   49300          418.21162      291.57463      9625.4056      2935.0472      12560.453      67906.475      87120        
     49400   49400          419.17947      295.64231      9646.1142      2975.9933      12622.108      68030.708      87120        
     49500   49500          420.13428      305.53935      9621.8443      3075.6189      12697.463      67975.082      87120        
     49600   49600          421.0808       303.40183      9608.8115      3054.1021      12662.914      67927.447      87120        
     49700   49700          422.02927      296.50722      9607.6575      2984.6997      12592.357      67825.22       87120        
     49800   49800          422.97299      292.83893      9601.2556      2947.7739      12549.029      67845.722      87120        
     49900   49900          423.91948      296.89908      9583.5226      2988.6442      12572.167      67772.111      87120        
     50000   50000          424.86831      304.70461      9583.346       3067.2162      12650.562      67732.541      87120        
     50100   50100          425.82331      298.06502      9630.0838      3000.3808      12630.465      67855.381      87120        
     50200   50200          426.76342      297.09942      9589.5479      2990.6609      12580.209      67752.025      87120        
     50300   50300          427.709        290.56554      9604.079       2924.8895      12528.968      67817.17       87120        
     50400   50400          428.65047      300.96223      9604.4156      3029.5447      12633.96       67950.907      87120        
     50500   50500          429.59247      302.62451      9613.3295      3046.2775      12659.607      67900.682      87120        
     50600   50600          430.53574      304.72587      9549.1693      3067.4302      12616.6        67538.686      87120        
     50700   50700          431.29242      295.77049      9566.0823      2977.2836      12543.366      67535.054      87120        
     50800   50800          432.04256      295.99155      9569.1911      2979.5089      12548.7        67684.334      87120        
     50900   50900          432.82374      303.4178       9604.4219      3054.2629      12658.685      67753.76       87120        
     51000   51000          433.7551       306.72026      9553.5618      3087.5061      12641.068      67585.282      87120        
     51100   51100          434.68335      295.56596      9586.6504      2975.2248      12561.875      67684.702      87120        
     51200   51200          435.6184       296.97431      9575.5088      2989.4015      12564.91       67628.812      87120        
     51300   51300          436.60983      301.31076      9578.4088      3033.053       12611.462      67670.623      87120        
     51400   51400          437.59556      308.92472      9518.9259      3109.6967      12628.623      67420.301      87120        
     51500   51500          438.52935      296.6325       9502.2472      2985.9607      12488.208      67340.975      87120        
     51600   51600          439.47143      295.8419       9532.5835      2978.0024      12510.586      67457.793      87120        
     51700   51700          440.39545      303.66776      9567.3943      3056.779       12624.173      67698.616      87120        
     51800   51800          441.35266      299.12996      9673.0118      3011.1007      12684.113      68039.126      87120        
     51900   51900          442.29653      298.73679      9665.3118      3007.143       12672.455      67930.036      87120        
     52000   52000          443.24948      299.2062       9582.7134      3011.8681      12594.582      67699.889      87120        
     52100   52100          444.20703      292.85112      9621.1626      2947.8966      12569.059      67906.454      87120        
     52200   52200          445.14006      296.80581      9693.476       2987.7053      12681.181      68147.629      87120        
     52300   52300          445.91295      304.2411       9649.5266      3062.5504      12712.077      67930.164      87120        
     52400   52400          446.67061      291.82406      9716.9244      2937.5581      12654.482      68133.4        87120        
     52500   52500          447.41923      298.40074      9650.0819      3003.7602      12653.842      67915.74       87120        
     52600   52600          448.34148      303.48493      9653.498       3054.9387      12708.437      67982.156      87120        
     52700   52700          449.29548      308.38812      9610.3323      3104.2951      12714.627      67897.06       87120        
     52800   52800          450.24174      298.85172      9582.498       3008.2999      12590.798      67718.729      87120        
     52900   52900          451.1964       296.48991      9556.0984      2984.5254      12540.624      67573.072      87120        
     53000   53000          452.13697      298.89094      9579.4452      3008.6947      12588.14       67675.826      87120        
     53100   53100          453.07119      306.33836      9559.0098      3083.6618      12642.672      67630.452      87120        
     53200   53200          453.99524      305.9208       9521.4604      3079.4586      12600.919      67502.482      87120        
     53300   53300          454.93738      293.09365      9523.1049      2950.338       12473.443      67397.697      87120        
     53400   53400          455.87897      297.87657      9508.3128      2998.4838      12506.797      67354.156      87120        
     53500   53500          456.82381      299.06984      9561.8516      3010.4955      12572.347      67585.325      87120        
     53600   53600          457.77224      303.0133       9535.4165      3050.1911      12585.608      67519.407      87120        
     53700   53700          458.72621      295.58395      9553.6949      2975.4058      12529.101      67570.424      87120        
     53800   53800          459.67573      294.38489      9586.6744      2963.3359      12550.01       67670.643      87120        
     53900   53900          460.48336      309.27602      9573.1956      3113.2329      12686.429      67707.892      87120        
     54000   54000          461.24517      300.11994      9654.5267      3021.066       12675.593      68017.098      87120        
     54100   54100          461.9964       296.86681      9643.481       2988.3194      12631.8        67963.327      87120        
     54200   54200          462.88753      302.65294      9569.2824      3046.5637      12615.846      67691.127      87120        
     54300   54300          463.84717      298.59966      9578.045       3005.7626      12583.808      67684.082      87120        
     54400   54400          464.81045      299.18442      9567.3705      3011.6488      12579.019      67667.451      87120        
     54500   54500          465.7519       302.88837      9534.582       3048.9336      12583.516      67599.836      87120        
     54600   54600          466.69814      303.40562      9575.2179      3054.1403      12629.358      67829.328      87120        
     54700   54700          467.64585      310.2049       9629.1042      3122.5832      12751.687      68005.372      87120        
     54800   54800          468.59018      302.77981      9638.5559      3047.8407      12686.397      67937.16       87120        
     54900   54900          469.55618      299.12951      9571.6628      3011.0961      12582.759      67608.14       87120        
     55000   55000          470.50406      298.47318      9548.5534      3004.4894      12553.043      67620.673      87120        
     55100   55100          471.43267      295.75619      9597.6187      2977.1396      12574.758      67811.056      87120        
     55200   55200          472.35374      305.43331      9593.0158      3074.5514      12667.567      67815.283      87120        
     55300   55300          473.26287      298.99647      9609.3721      3009.7569      12619.129      67729.656      87120        
     55400   55400          474.1964       302.05669      9540.7709      3040.5617      12581.333      67422.861      87120        
     55500   55500          475.02725      300.49437      9543.251       3024.835       12568.086      67590.208      87120        
     55600   55600          475.77696      299.83398      9541.6007      3018.1875      12559.788      67631.205      87120        
     55700   55700          476.53373      293.09593      9664.4305      2950.361       12614.791      67968.195      87120        
     55800   55800          477.39124      304.94427      9612.7047      3069.6287      12682.333      67735.282      87120        
     55900   55900          478.33256      301.57342      9601.3087      3035.697       12637.006      67753.482      87120        
     56000   56000          479.27008      295.26923      9586.9454      2972.2379      12559.183      67686.012      87120        
     56100   56100          480.18631      298.86988      9570.3991      3008.4826      12578.882      67710.919      87120        
     56200   56200          481.10438      310.84747      9575.1383      3129.0514      12704.19       67716.641      87120        
     56300   56300          482.04583      302.48783      9631.1243      3044.9017      12676.026      67880.523      87120        
     56400   56400          482.97152      300.4167       9570.0595      3024.0533      12594.113      67657.486      87120        
     56500   56500          483.91679      298.6503       9543.8174      3006.2723      12550.09       67496.411      87120        
     56600   56600          484.84612      295.54552      9549.964       2975.019       12524.983      67555.629      87120        
     56700   56700          485.78093      296.38085      9595.1981      2983.4276      12578.626      67694.14       87120        
     56800   56800          486.71531      305.16172      9601.0605      3071.8175      12672.878      67766.31       87120        
     56900   56900          487.65292      305.27329      9579.9926      3072.9406      12652.933      67657.522      87120        
     57000   57000          488.59162      298.92107      9618.5554      3008.998       12627.553      67780.326      87120        
[...]
    986300   986300         8793.8362      303.03247      9598.3867      3050.3841      12648.771      67466.993      87120        
    986400   986400         8794.7467      305.94936      9528.8209      3079.7461      12608.567      67308.757      87120        
    986500   986500         8795.6239      294.98629      9583.7299      2969.3896      12553.12       67714.74       87120        
    986600   986600         8796.3657      302.8806       9519.5235      3048.8554      12568.379      67537.346      87120        
    986700   986700         8797.107       305.26449      9543.6069      3072.852       12616.459      67395.897      87120        
    986800   986800         8797.8399      302.67979      9593.2683      3046.8339      12640.102      67571.635      87120        
    986900   986900         8798.5762      293.16178      9642.0664      2951.0238      12593.09       67820.99       87120        
    987000   987000         8799.4498      296.0746       9615.2307      2980.3448      12595.576      67837.054      87120        
    987100   987100         8800.358       305.11486      9633.2813      3071.3459      12704.627      67844.446      87120        
    987200   987200         8801.2692      308.89387      9641.0886      3109.3861      12750.475      67912.364      87120        
    987300   987300         8802.1828      297.05         9645.5606      2990.1633      12635.724      67929.521      87120        
    987400   987400         8803.0939      300.55997      9606.0732      3025.4954      12631.569      67814.736      87120        
    987500   987500         8804.0164      296.36804      9683.9494      2983.2986      12667.248      68031.785      87120        
    987600   987600         8804.9389      301.59914      9665.0599      3035.9559      12701.016      68026.595      87120        
    987700   987700         8805.8658      305.66154      9639.5358      3076.8489      12716.385      67962.169      87120        
    987800   987800         8806.7974      302.71819      9716.5738      3047.2205      12763.794      68173.324      87120        
    987900   987900         8807.7207      308.64247      9614.6736      3106.8555      12721.529      67678.631      87120        
    988000   988000         8808.6309      298.29966      9610.7566      3002.7427      12613.499      67734.596      87120        
    988100   988100         8809.4405      299.82257      9559.8136      3018.0727      12577.886      67691.188      87120        
    988200   988200         8810.18        301.72932      9590.0344      3037.2663      12627.301      67708.043      87120        
    988300   988300         8810.909       308.20718      9597.1423      3102.4738      12699.616      67760.928      87120        
    988400   988400         8811.6529      296.68759      9613.0148      2986.5153      12599.53       67688.476      87120        
    988500   988500         8812.3998      291.39216      9586.7224      2933.2105      12519.933      67517.933      87120        
    988600   988600         8813.2986      292.2092       9618.2735      2941.4349      12559.708      67686.149      87120        
    988700   988700         8814.2145      302.04849      9585.4489      3040.4792      12625.928      67663.077      87120        
    988800   988800         8815.1248      303.2084       9570.0571      3052.155       12622.212      67652.146      87120        
    988900   988900         8816.0352      294.21647      9597.1403      2961.6405      12558.781      67744.597      87120        
    989000   989000         8816.9442      291.10784      9508.8593      2930.3484      12439.208      67306.544      87120        
    989100   989100         8817.8384      287.99592      9568.8594      2899.0232      12467.883      67501.243      87120        
    989200   989200         8818.7384      295.38304      9599.7187      2973.3834      12573.102      67613.211      87120        
    989300   989300         8819.6317      303.05421      9605.5951      3050.6029      12656.198      67640.459      87120        
    989400   989400         8820.546       304.92007      9628.9428      3069.3851      12698.328      67833.154      87120        
    989500   989500         8821.4551      298.13548      9622.9815      3001.09        12624.072      67878.916      87120        
    989600   989600         8822.3676      301.55977      9533.629       3035.5596      12569.189      67536.719      87120        
    989700   989700         8823.1643      301.51026      9510.3134      3035.0612      12545.375      67286.057      87120        
    989800   989800         8823.9001      296.27072      9558.0476      2982.319       12540.367      67432.865      87120        
    989900   989900         8824.6426      302.92104      9616.4969      3049.2624      12665.759      67810.148      87120        
    990000   990000         8825.4027      301.55587      9696.0184      3035.5204      12731.539      68197.77       87120        
    990100   990100         8826.1689      307.14198      9575.9431      3091.7513      12667.694      67686.822      87120        
    990200   990200         8827.0846      299.53547      9561.3578      3015.1826      12576.54       67372.586      87120        
    990300   990300         8828.0029      292.56565      9619.1757      2945.0231      12564.199      67638.164      87120        
    990400   990400         8828.9186      297.44155      9649.6336      2994.1048      12643.738      68140.517      87120        
    990500   990500         8829.8332      305.72938      9589.1947      3077.5317      12666.726      67818.907      87120        
    990600   990600         8830.7533      303.59367      9555.464       3056.0333      12611.497      67383.168      87120        
    990700   990700         8831.6504      296.2359       9600.3791      2981.9685      12582.348      67586.183      87120        
    990800   990800         8832.5569      304.32945      9553.3838      3063.4398      12616.824      67489.035      87120        
    990900   990900         8833.4621      303.10181      9594.5749      3051.0821      12645.657      67684.02       87120        
    991000   991000         8834.3759      299.27446      9600.35        3012.5553      12612.905      67841.191      87120        
    991100   991100         8835.2749      290.60964      9609.4247      2925.3334      12534.758      67730.038      87120        
    991200   991200         8836.1846      299.90294      9539.333       3018.8817      12558.215      67401.077      87120        
    991300   991300         8836.9515      300.60458      9604.2153      3025.9445      12630.16       67745.516      87120        
    991400   991400         8837.684       303.86413      9581.8726      3058.7557      12640.628      67680.815      87120        
    991500   991500         8838.4048      304.66701      9516.6377      3066.8377      12583.475      67447.602      87120        
    991600   991600         8839.1299      299.29236      9543.8455      3012.7354      12556.581      67407.058      87120        
    991700   991700         8839.9211      300.99376      9543.0466      3029.8621      12572.909      67371.972      87120        
    991800   991800         8840.834       302.59098      9536.1291      3045.94        12582.069      67469.408      87120        
    991900   991900         8841.7613      297.6781       9592.6742      2996.4859      12589.16       67832.223      87120        
    992000   992000         8842.6875      296.65307      9616.354       2986.1678      12602.522      67786.193      87120        
    992100   992100         8843.6036      305.76811      9593.4907      3077.9215      12671.412      67536.511      87120        
    992200   992200         8844.5021      304.174        9608.255       3061.8749      12670.13       67680.689      87120        
    992300   992300         8845.4024      297.8271       9601.4336      2997.9858      12599.419      67752.15       87120        
    992400   992400         8846.3146      301.7521       9532.7784      3037.4957      12570.274      67550.261      87120        
    992500   992500         8847.2483      299.52484      9580.6496      3015.0756      12595.725      67628.176      87120        
    992600   992600         8848.1671      301.00145      9629.911       3029.9395      12659.85       67833.18       87120        
    992700   992700         8849.0788      299.27653      9665.7753      3012.576       12678.351      67935          87120        
    992800   992800         8849.9986      302.55838      9601.4215      3045.6118      12647.033      67671.087      87120        
    992900   992900         8850.7368      299.64957      9599.6552      3016.3312      12615.986      67707.812      87120        
    993000   993000         8851.4722      296.39634      9645.4157      2983.5835      12628.999      67827.75       87120        
    993100   993100         8852.2173      303.19768      9628.72        3052.0471      12680.767      67910.189      87120        
    993200   993200         8852.9787      300.70886      9650.4837      3026.9942      12677.478      67982.932      87120        
    993300   993300         8853.8362      302.34538      9598.2787      3043.4678      12641.746      67704.169      87120        
    993400   993400         8854.7573      290.93816      9624.6077      2928.6404      12553.248      67814.974      87120        
    993500   993500         8855.6847      297.09426      9598.3208      2990.6089      12588.93       67788.116      87120        
    993600   993600         8856.6159      299.30037      9635.2656      3012.8161      12648.082      67904.416      87120        
    993700   993700         8857.5567      300.94225      9633.0854      3029.3435      12662.429      67775.615      87120        
    993800   993800         8858.4812      304.53356      9605.2791      3065.4944      12670.773      67737.781      87120        
    993900   993900         8859.4029      295.79853      9600.6983      2977.5658      12578.264      67782.372      87120        
    994000   994000         8860.3454      293.57461      9595.5384      2955.1794      12550.718      67657.371      87120        
    994100   994100         8861.2624      296.6846       9649.6086      2986.4852      12636.094      67905.367      87120        
    994200   994200         8862.1817      301.93776      9616.2145      3039.3645      12655.579      67773.198      87120        
    994300   994300         8863.1042      296.66667      9643.1779      2986.3048      12629.483      67924.287      87120        
    994400   994400         8863.9268      299.62702      9592.4546      3016.1042      12608.559      67758.302      87120        
    994500   994500         8864.6697      303.07405      9576.1297      3050.8026      12626.932      67602.739      87120        
    994600   994600         8865.4081      306.97695      9585.7816      3090.09        12675.872      67658.543      87120        
    994700   994700         8866.1645      301.42209      9622.3015      3034.1737      12656.475      67673.196      87120        
    994800   994800         8866.9232      293.97715      9598.8957      2959.2315      12558.127      67655.484      87120        
    994900   994900         8867.8382      297.90628      9568.0291      2998.7829      12566.812      67619.388      87120        
    995000   995000         8868.7604      301.88049      9567.0531      3038.788       12605.841      67591.933      87120        
    995100   995100         8869.6637      303.78983      9592.6548      3058.0078      12650.663      67641.542      87120        
    995200   995200         8870.5756      299.40792      9610.3003      3013.8986      12624.199      67621.93       87120        
    995300   995300         8871.4989      293.50251      9567.7326      2954.4537      12522.186      67573.458      87120        
    995400   995400         8872.4065      290.28727      9601.6169      2922.0884      12523.705      67704.447      87120        
    995500   995500         8873.3022      300.22241      9601.6124      3022.0975      12623.71       67708.606      87120        
    995600   995600         8874.2151      305.44012      9586.8878      3074.6199      12661.508      67680.166      87120        
    995700   995700         8875.1365      298.01695      9604.995       2999.8969      12604.892      67674.198      87120        
    995800   995800         8876.0635      298.35102      9607.7551      3003.2598      12611.015      67806.279      87120        
    995900   995900         8876.9897      297.79865      9612.4883      2997.6995      12610.188      67824.727      87120        
    996000   996000         8877.7761      303.87727      9589.7415      3058.888       12648.629      67711.842      87120        
    996100   996100         8878.511       305.78247      9621.4554      3078.0661      12699.522      67867.394      87120        
    996200   996200         8879.2538      304.4592       9636.3345      3064.7459      12701.08       67979.283      87120        
    996300   996300         8880.0079      291.89415      9674.5581      2938.2636      12612.822      68041.766      87120        
    996400   996400         8880.8044      297.07844      9602.1886      2990.4497      12592.638      67648.722      87120        
    996500   996500         8881.7329      306.85659      9578.9719      3088.8785      12667.85       67711.338      87120        
    996600   996600         8882.6573      301.58236      9628.6881      3035.787       12664.475      67900.56       87120        
    996700   996700         8883.5881      297.01284      9613.647       2989.7893      12603.436      67785.363      87120        
    996800   996800         8884.5006      295.08205      9576.1063      2970.3536      12546.46       67577.807      87120        
    996900   996900         8885.4162      299.69564      9587.8491      3016.7949      12604.644      67586.528      87120        
    997000   997000         8886.3334      310.71155      9560.6337      3127.6832      12688.317      67580.357      87120        
    997100   997100         8887.2533      300.27353      9624.4939      3022.6121      12647.106      67827.89       87120        
    997200   997200         8888.163       303.04912      9553.7838      3050.5517      12604.335      67558.921      87120        
    997300   997300         8889.0761      294.64368      9590.6144      2965.9409      12556.555      67571.252      87120        
    997400   997400         8890.0012      299.75395      9566.2796      3017.3819      12583.661      67510.628      87120        
    997500   997500         8890.8869      307.7179       9590.6383      3097.5486      12688.187      67731.787      87120        
    997600   997600         8891.6193      305.31385      9610.4699      3073.3489      12683.819      67854.519      87120        
    997700   997700         8892.3568      297.38584      9540.3762      2993.544       12533.92       67454.337      87120        
    997800   997800         8893.0917      295.31468      9592.4677      2972.6954      12565.163      67471.723      87120        
    997900   997900         8893.8313      300.67143      9619.8183      3026.6174      12646.436      67746.027      87120        
    998000   998000         8894.6969      301.04975      9624.0138      3030.4256      12654.439      67899.45       87120        
    998100   998100         8895.6072      296.54659      9627.998       2985.096       12613.094      67892.075      87120        
    998200   998200         8896.5241      294.25627      9637.7369      2962.0411      12599.778      67858.059      87120        
    998300   998300         8897.4534      300.92086      9609.6496      3029.1282      12638.778      67795.953      87120        
    998400   998400         8898.3773      300.07413      9629.7729      3020.6049      12650.378      68005.024      87120        
    998500   998500         8899.2999      304.66136      9596.7398      3066.7808      12663.521      67794.827      87120        
    998600   998600         8900.2265      296.78302      9652.2232      2987.4759      12639.699      67978.191      87120        
    998700   998700         8901.1717      299.08939      9654.0557      3010.6923      12664.748      67915.371      87120        
    998800   998800         8902.0998      309.41894      9654.677       3114.6716      12769.349      67994.389      87120        
    998900   998900         8903.0287      300.62058      9689.8308      3026.1055      12715.936      68042.993      87120        
    999000   999000         8903.9715      296.68768      9663.8236      2986.5162      12650.34       68126.513      87120        
    999100   999100         8904.801       292.66115      9678.2786      2945.9844      12624.263      68134.943      87120        
    999200   999200         8905.5385      306.77271      9644.8695      3088.0341      12732.904      67913.457      87120        
    999300   999300         8906.2851      306.09033      9645.7         3081.1651      12726.865      67870.114      87120        
    999400   999400         8907.0273      295.75106      9687.2133      2977.088       12664.301      68068.629      87120        
    999500   999500         8907.7892      300.39194      9621.0728      3023.804       12644.877      67955.464      87120        
    999600   999600         8908.7214      300.08672      9589.804       3020.7316      12610.536      67795.032      87120        
    999700   999700         8909.6475      298.58204      9605.8326      3005.5852      12611.418      67750.401      87120        
    999800   999800         8910.5803      298.99296      9650.1076      3009.7216      12659.829      67824.981      87120        
    999900   999900         8911.4957      306.1721       9572.3349      3081.9882      12654.323      67522.507      87120        
   1000000   1000000        8912.4105      298.07616      9572.6865      3000.4929      12573.179      67552.055      87120        
Loop time of 8912.41 on 8 procs for 1000000 steps with 4373 atoms

Performance: 9.694 ns/day, 2.476 hours/ns, 112.203 timesteps/s, 490.664 katom-step/s
98.9% CPU use with 8 MPI tasks x no OpenMP threads

MPI task timing breakdown:
Section |  min time  |  avg time  |  max time  |%varavg| %total
---------------------------------------------------------------
Pair    | 200.07     | 2352.3     | 7441.8     |6001.4 | 26.39
Bond    | 3.1678     | 29.961     | 40.928     | 282.0 |  0.34
Neigh   | 973.02     | 977.18     | 981.84     |  11.3 | 10.96
Comm    | 242.65     | 5281.4     | 7408.5     |3964.8 | 59.26
Output  | 1.6216     | 1.7509     | 2.0042     |   8.6 |  0.02
Modify  | 220.65     | 242.11     | 262.91     | 103.1 |  2.72
Other   |            | 27.78      |            |       |  0.31

Nlocal:        546.625 ave        1389 max         223 min
Histogram: 4 2 0 0 0 0 0 0 0 2
Nghost:        4624.75 ave        6935 max         748 min
Histogram: 2 0 0 0 0 0 0 4 0 2
Neighs:         193635 ave      609243 max       18863 min
Histogram: 4 2 0 0 0 0 0 0 0 2

Total # of neighbors = 1549080
Ave neighs/atom = 354.23737
Ave special neighs/atom = 6.3571919
Neighbor list builds = 70542
Dangerous builds = 0
unfix                  mynvt


write_data             nvt_1ns.data
System init for write_data ...
Generated 21 of 21 mixed pair_coeff terms from arithmetic mixing rule
WARNING: Dihedrals are defined but no dihedral style is set (../force.cpp:207)
WARNING: Likewise 1-4 special neighbor interactions != 1.0 (../force.cpp:209)
WARNING: Impropers are defined but no improper style is set (../force.cpp:212)












Total wall time: 2:28:32
