
     Program PWSCF v.7.3.1 starts on  4Nov2024 at 13:47:16 

     This program is part of the open-source Quantum ESPRESSO suite
     for quantum simulation of materials; please cite
         "P. Giannozzi et al., J. Phys.:Condens. Matter 21 395502 (2009);
         "P. Giannozzi et al., J. Phys.:Condens. Matter 29 465901 (2017);
         "P. Giannozzi et al., J. Chem. Phys. 152 154105 (2020);
          URL http://www.quantum-espresso.org", 
     in publications or presentations arising from this work. More details at
     http://www.quantum-espresso.org/quote

     Parallel version (MPI), running on     1 processors

     MPI processes distributed on     1 nodes
     14491 MiB available memory on the printing compute node when the environment starts

     Waiting for input...
     Reading input from standard input

     Current dimensions of program PWSCF are:
     Max number of different atomic species (ntypx) = 10
     Max number of k-points (npk) =  40000
     Max angular momentum in pseudopotentials (lmaxx) =  4

     Subspace diagonalization in iterative solution of the eigenvalue problem:
     a serial algorithm will be used


     G-vector sticks info
     --------------------
     sticks:   dense  smooth     PW     G-vecs:    dense   smooth      PW
     Sum         223     223     85                 2229     2229     531

     Using Slab Decomposition



     bravais-lattice index     =            2
     lattice parameter (alat)  =       7.3700  a.u.
     unit-cell volume          =     100.0789 (a.u.)^3
     number of atoms/cell      =            1
     number of atomic types    =            1
     number of electrons       =        10.00
     number of Kohn-Sham states=           10
     kinetic-energy cutoff     =      30.0000  Ry
     charge density cutoff     =     120.0000  Ry
     scf convergence threshold =      1.0E-08
     mixing beta               =       0.7000
     number of iterations used =            8  plain     mixing
     Exchange-correlation=  SLA  PZ   NOGX NOGC
                           (   1   1   0   0   0   0   0)
     Non magnetic calculation with spin-orbit


     celldm(1)=   7.370000  celldm(2)=   0.000000  celldm(3)=   0.000000
     celldm(4)=   0.000000  celldm(5)=   0.000000  celldm(6)=   0.000000

     crystal axes: (cart. coord. in units of alat)
               a(1) = (  -0.500000   0.000000   0.500000 )  
               a(2) = (   0.000000   0.500000   0.500000 )  
               a(3) = (  -0.500000   0.500000   0.000000 )  

     reciprocal axes: (cart. coord. in units 2 pi/alat)
               b(1) = ( -1.000000 -1.000000  1.000000 )  
               b(2) = (  1.000000  1.000000  1.000000 )  
               b(3) = ( -1.000000  1.000000 -1.000000 )  


     PseudoPot. # 1 for Pt read from file:
     /home/dashlander/Desktop/Sem7/CPD/Assignment_3/pseudo/Pt.rel-pz-n-rrkjus.UPF
     MD5 check sum: 4baafe8ec1942611396c7a5466f52249
     Pseudo is Ultrasoft + core correction, Zval = 10.0
     Generated by new atomic code, or converted to UPF format
     Using radial grid of 1277 points,  6 beta functions with: 
                l(1) =   2
                l(2) =   2
                l(3) =   2
                l(4) =   2
                l(5) =   1
                l(6) =   1
     Q(r) pseudized with 0 coefficients 


     atomic species   valence    mass     pseudopotential
     Pt               10.00   195.08400     Pt( 1.00)

     48 Sym. Ops., with inversion, found



   Cartesian axes

     site n.     atom                  positions (alat units)
         1        Pt     tau(   1) = (   0.0000000   0.0000000   0.0000000  )

     number of k points=    35
                       cart. coord. in units 2pi/alat
        k(    1) = (   0.0000000   0.0000000   0.0000000), wk =   0.0013717
        k(    2) = (  -0.1111111   0.1111111  -0.1111111), wk =   0.0109739
        k(    3) = (  -0.2222222   0.2222222  -0.2222222), wk =   0.0109739
        k(    4) = (  -0.3333333   0.3333333  -0.3333333), wk =   0.0109739
        k(    5) = (  -0.4444444   0.4444444  -0.4444444), wk =   0.0109739
        k(    6) = (   0.0000000   0.2222222   0.0000000), wk =   0.0082305
        k(    7) = (  -0.1111111   0.3333333  -0.1111111), wk =   0.0329218
        k(    8) = (  -0.2222222   0.4444444  -0.2222222), wk =   0.0329218
        k(    9) = (  -0.3333333   0.5555556  -0.3333333), wk =   0.0329218
        k(   10) = (   0.5555556  -0.3333333   0.5555556), wk =   0.0329218
        k(   11) = (   0.4444444  -0.2222222   0.4444444), wk =   0.0329218
        k(   12) = (   0.3333333  -0.1111111   0.3333333), wk =   0.0329218
        k(   13) = (   0.2222222  -0.0000000   0.2222222), wk =   0.0164609
        k(   14) = (   0.0000000   0.4444444   0.0000000), wk =   0.0082305
        k(   15) = (  -0.1111111   0.5555556  -0.1111111), wk =   0.0329218
        k(   16) = (  -0.2222222   0.6666667  -0.2222222), wk =   0.0329218
        k(   17) = (   0.6666667  -0.2222222   0.6666667), wk =   0.0329218
        k(   18) = (   0.5555556  -0.1111111   0.5555556), wk =   0.0329218
        k(   19) = (   0.4444444   0.0000000   0.4444444), wk =   0.0164609
        k(   20) = (   0.0000000   0.6666667   0.0000000), wk =   0.0082305
        k(   21) = (  -0.1111111   0.7777778  -0.1111111), wk =   0.0329218
        k(   22) = (   0.7777778  -0.1111111   0.7777778), wk =   0.0329218
        k(   23) = (   0.6666667  -0.0000000   0.6666667), wk =   0.0164609
        k(   24) = (   0.0000000   0.8888889   0.0000000), wk =   0.0082305
        k(   25) = (   0.8888889   0.0000000   0.8888889), wk =   0.0164609
        k(   26) = (  -0.2222222   0.4444444   0.0000000), wk =   0.0329218
        k(   27) = (  -0.3333333   0.5555556  -0.1111111), wk =   0.0658436
        k(   28) = (   0.5555556  -0.3333333   0.7777778), wk =   0.0658436
        k(   29) = (  -0.2222222   0.6666667   0.0000000), wk =   0.0329218
        k(   30) = (   0.6666667  -0.2222222   0.8888889), wk =   0.0658436
        k(   31) = (   0.5555556  -0.1111111   0.7777778), wk =   0.0658436
        k(   32) = (   0.4444444   0.0000000   0.6666667), wk =   0.0329218
        k(   33) = (   0.7777778  -0.1111111   1.0000000), wk =   0.0329218
        k(   34) = (   0.6666667  -0.0000000   0.8888889), wk =   0.0329218
        k(   35) = (   0.5555556  -0.1111111   1.0000000), wk =   0.0329218

     Dense  grid:     2229 G-vectors     FFT dimensions: (  20,  20,  20)

     Estimated max dynamical RAM per process >      21.54 MB

     Check: negative core charge=   -0.000026

     Initial potential from superposition of free atoms

     starting charge       9.9999, renormalised to      10.0000
     Starting wfcs are   12 randomized atomic wfcs

     total cpu time spent up to now is        0.9 secs

     Self-consistent Calculation

     iteration #  1     ecut=    30.00 Ry     beta= 0.70
     Davidson diagonalization with overlap
     ethr =  1.00E-02,  avg # of iterations =  2.2

     Threshold (ethr) on eigenvalues was too large:
     Diagonalizing with lowered threshold

     Davidson diagonalization with overlap
     ethr =  1.46E-05,  avg # of iterations =  8.0

     total cpu time spent up to now is        1.9 secs

     total energy              =     -69.45970320 Ry
     estimated scf accuracy    <       0.00489370 Ry

     iteration #  2     ecut=    30.00 Ry     beta= 0.70
     Davidson diagonalization with overlap
     ethr =  4.89E-05,  avg # of iterations =  2.1

     total cpu time spent up to now is        2.3 secs

     total energy              =     -69.46110072 Ry
     estimated scf accuracy    <       0.00062830 Ry

     iteration #  3     ecut=    30.00 Ry     beta= 0.70
     Davidson diagonalization with overlap
     ethr =  6.28E-06,  avg # of iterations =  2.0

     total cpu time spent up to now is        2.6 secs

     total energy              =     -69.46119322 Ry
     estimated scf accuracy    <       0.00002060 Ry

     iteration #  4     ecut=    30.00 Ry     beta= 0.70
     Davidson diagonalization with overlap
     ethr =  2.06E-07,  avg # of iterations =  6.0

     total cpu time spent up to now is        3.1 secs

     total energy              =     -69.46121670 Ry
     estimated scf accuracy    <       0.00000513 Ry

     iteration #  5     ecut=    30.00 Ry     beta= 0.70
     Davidson diagonalization with overlap
     ethr =  5.13E-08,  avg # of iterations =  3.1

     total cpu time spent up to now is        3.5 secs

     total energy              =     -69.46121750 Ry
     estimated scf accuracy    <       0.00000023 Ry

     iteration #  6     ecut=    30.00 Ry     beta= 0.70
     Davidson diagonalization with overlap
     ethr =  2.27E-09,  avg # of iterations =  6.1

     total cpu time spent up to now is        4.0 secs

     total energy              =     -69.46121778 Ry
     estimated scf accuracy    <       0.00000009 Ry

     iteration #  7     ecut=    30.00 Ry     beta= 0.70
     Davidson diagonalization with overlap
     ethr =  8.86E-10,  avg # of iterations =  2.7

     total cpu time spent up to now is        4.4 secs

     total energy              =     -69.46121780 Ry
     estimated scf accuracy    <       0.00000006 Ry

     iteration #  8     ecut=    30.00 Ry     beta= 0.70
     Davidson diagonalization with overlap
     ethr =  6.04E-10,  avg # of iterations =  2.1

     total cpu time spent up to now is        4.7 secs

     End of self-consistent calculation

          k = 0.0000 0.0000 0.0000 (   283 PWs)   bands (ev):

     7.5668   7.5668  13.7477  13.7477  13.7477  13.7477  14.7396  14.7396
    16.5796  16.5796

          k =-0.1111 0.1111-0.1111 (   280 PWs)   bands (ev):

     8.0582   8.0582  13.6927  13.6927  13.8586  13.8586  14.8539  14.8539
    16.4112  16.4112

          k =-0.2222 0.2222-0.2222 (   283 PWs)   bands (ev):

     9.3052   9.3052  13.5925  13.5925  13.9483  13.9483  15.1404  15.1404
    16.3218  16.3218

          k =-0.3333 0.3333-0.3333 (   281 PWs)   bands (ev):

    10.3357  10.3357  13.7775  13.7775  14.5001  14.5001  14.9039  14.9039
    17.0921  17.0921

          k =-0.4444 0.4444-0.4444 (   269 PWs)   bands (ev):

    10.5188  10.5188  13.5843  13.5843  14.5996  14.5996  16.7322  16.7322
    17.8195  17.8195

          k = 0.0000 0.2222 0.0000 (   283 PWs)   bands (ev):

     8.2242   8.2242  13.5221  13.5221  14.0217  14.0217  14.9359  14.9359
    16.1844  16.1844

          k =-0.1111 0.3333-0.1111 (   289 PWs)   bands (ev):

     9.2514   9.2514  13.2322  13.2322  14.1687  14.1687  15.2995  15.2995
    16.0114  16.0114

          k =-0.2222 0.4444-0.2222 (   283 PWs)   bands (ev):

    10.4971  10.4971  13.4219  13.4219  13.9303  13.9303  15.1547  15.1547
    16.9472  16.9472

          k =-0.3333 0.5556-0.3333 (   271 PWs)   bands (ev):

    10.8868  10.8868  13.5719  13.5719  14.6000  14.6000  15.1257  15.1257
    18.0861  18.0861

          k = 0.5556-0.3333 0.5556 (   271 PWs)   bands (ev):

    10.9095  10.9095  13.4935  13.4935  14.6120  14.6120  15.8189  15.8189
    18.0209  18.0209

          k = 0.4444-0.2222 0.4444 (   277 PWs)   bands (ev):

    10.8811  10.8811  13.6628  13.6628  14.5199  14.5199  14.8748  14.8748
    17.1353  17.1353

          k = 0.3333-0.1111 0.3333 (   287 PWs)   bands (ev):

    10.1605  10.1605  13.3518  13.3518  14.0277  14.0277  15.2340  15.2340
    16.1172  16.1172

          k = 0.2222-0.0000 0.2222 (   285 PWs)   bands (ev):

     8.8268   8.8268  13.4610  13.4610  14.0394  14.0394  15.1171  15.1171
    16.0526  16.0526

          k = 0.0000 0.4444 0.0000 (   290 PWs)   bands (ev):

     9.9054   9.9054  12.7176  12.7176  14.4597  14.4597  15.8418  15.8418
    15.8767  15.8767

          k =-0.1111 0.5556-0.1111 (   286 PWs)   bands (ev):

    10.9110  10.9110  12.4120  12.4120  14.2783  14.2783  16.0173  16.0173
    16.9679  16.9679

          k =-0.2222 0.6667-0.2222 (   276 PWs)   bands (ev):

    11.4612  11.4612  12.7880  12.7880  14.0587  14.0587  15.7855  15.7855
    18.2123  18.2123

          k = 0.6667-0.2222 0.6667 (   275 PWs)   bands (ev):

    11.6658  11.6658  13.0407  13.0407  14.3834  14.3834  15.5419  15.5419
    18.0964  18.0964

          k = 0.5556-0.1111 0.5556 (   275 PWs)   bands (ev):

    11.9136  11.9136  13.2263  13.2263  14.0194  14.0194  15.3581  15.3581
    17.1721  17.1721

          k = 0.4444 0.0000 0.4444 (   275 PWs)   bands (ev):

    11.5083  11.5083  13.0947  13.0947  13.7860  13.7860  15.4042  15.4042
    16.1919  16.1919

          k = 0.0000 0.6667 0.0000 (   274 PWs)   bands (ev):

    11.0100  11.0100  11.8332  11.8332  15.5364  15.5364  17.0632  17.0632
    17.1175  17.1175

          k =-0.1111 0.7778-0.1111 (   276 PWs)   bands (ev):

    11.1644  11.1644  11.7175  11.7175  15.7442  15.7442  17.1450  17.1450
    18.2975  18.2975

          k = 0.7778-0.1111 0.7778 (   276 PWs)   bands (ev):

    11.4714  11.4714  12.2074  12.2074  15.1311  15.1311  16.7319  16.7319
    18.3130  18.3130

          k = 0.6667-0.0000 0.6667 (   284 PWs)   bands (ev):

    11.9810  11.9810  12.9090  12.9090  14.1956  14.1956  16.1333  16.1333
    17.6243  17.6243

          k = 0.0000 0.8889 0.0000 (   286 PWs)   bands (ev):

    10.7855  10.7855  11.3018  11.3018  17.8237  17.8237  17.9500  17.9500
    18.9533  18.9533

          k = 0.8889 0.0000 0.8889 (   280 PWs)   bands (ev):

    10.9479  10.9479  11.4522  11.4522  16.9146  16.9146  17.6892  17.6892
    18.7254  18.7254

          k =-0.2222 0.4444 0.0000 (   285 PWs)   bands (ev):

    10.3863  10.3863  12.8805  12.8805  14.0793  14.0793  15.7447  15.7447
    15.9818  15.9818

          k =-0.3333 0.5556-0.1111 (   278 PWs)   bands (ev):

    11.4409  11.4409  13.1369  13.1369  13.6314  13.6314  15.5530  15.5530
    16.9944  16.9944

          k = 0.5556-0.3333 0.7778 (   276 PWs)   bands (ev):

    11.5782  11.5782  13.1768  13.1768  14.3361  14.3361  15.3565  15.3565
    17.8954  17.8954

          k =-0.2222 0.6667 0.0000 (   277 PWs)   bands (ev):

    11.5290  11.5290  12.1590  12.1590  14.2797  14.2797  16.8774  16.8774
    17.1590  17.1590

          k = 0.6667-0.2222 0.8889 (   274 PWs)   bands (ev):

    11.8678  11.8678  12.5103  12.5103  14.0700  14.0700  16.4781  16.4781
    18.0531  18.0531

          k = 0.5556-0.1111 0.7778 (   274 PWs)   bands (ev):

    12.2430  12.2430  12.7684  12.7684  13.8905  13.8905  16.0358  16.0358
    17.9557  17.9557

          k = 0.4444 0.0000 0.6667 (   273 PWs)   bands (ev):

    12.5680  12.5680  12.9023  12.9023  13.1607  13.1607  16.0450  16.0450
    17.2140  17.2140

          k = 0.7778-0.1111 1.0000 (   276 PWs)   bands (ev):

    11.2644  11.2644  11.7088  11.7088  15.7483  15.7483  17.4311  17.4311
    18.5268  18.5268

          k = 0.6667-0.0000 0.8889 (   278 PWs)   bands (ev):

    11.6911  11.6911  12.2780  12.2780  14.7981  14.7981  16.6936  16.6936
    18.4891  18.4891

          k = 0.5556-0.1111 1.0000 (   272 PWs)   bands (ev):

    12.1696  12.1696  12.8847  12.8847  13.6256  13.6256  16.2941  16.2941
    18.4577  18.4577

     highest occupied level (ev):    18.9533

!    total energy              =     -69.46121781 Ry
     estimated scf accuracy    <          1.3E-10 Ry

     The total energy is the sum of the following terms:
     one-electron contribution =      17.64569587 Ry
     hartree contribution      =       3.67171232 Ry
     xc contribution           =     -28.56882849 Ry
     ewald contribution        =     -62.20979751 Ry

     convergence has been achieved in   8 iterations

     Forces acting on atoms (cartesian axes, Ry/au):

     atom    1 type  1   force =     0.00000000    0.00000000    0.00000000

     Total force =     0.000000     Total SCF correction =     0.000000


     Computing stress (Cartesian axis) and pressure

          total   stress  (Ry/bohr**3)                   (kbar)     P=      120.22
   0.00081723  -0.00000000  -0.00000000          120.22       -0.00       -0.00
  -0.00000000   0.00081723   0.00000000           -0.00      120.22        0.00
  -0.00000000   0.00000000   0.00081723           -0.00        0.00      120.22


     Writing all to output data dir ./platinum.save/ :
     XML data file, charge density, pseudopotentials, collected wavefunctions

     init_run     :      0.54s CPU      0.81s WALL (       1 calls)
     electrons    :      3.52s CPU      3.83s WALL (       1 calls)
     forces       :      0.06s CPU      0.06s WALL (       1 calls)
     stress       :      0.28s CPU      0.28s WALL (       1 calls)

     Called by init_run:
     wfcinit      :      0.21s CPU      0.36s WALL (       1 calls)
     potinit      :      0.01s CPU      0.01s WALL (       1 calls)
     hinit0       :      0.29s CPU      0.42s WALL (       1 calls)

     Called by electrons:
     c_bands      :      2.91s CPU      3.17s WALL (       9 calls)
     sum_band     :      0.48s CPU      0.52s WALL (       9 calls)
     v_of_rho     :      0.00s CPU      0.00s WALL (       9 calls)
     newd         :      0.15s CPU      0.15s WALL (       9 calls)
     mix_rho      :      0.00s CPU      0.00s WALL (       9 calls)

     Called by c_bands:
     init_us_2    :      0.05s CPU      0.05s WALL (     735 calls)
     cegterg      :      2.73s CPU      2.98s WALL (     315 calls)

     Called by *egterg:
     cdiaghg      :      0.11s CPU      0.12s WALL (    1483 calls)
     h_psi        :      1.79s CPU      2.10s WALL (    1553 calls)
     s_psi        :      0.24s CPU      0.26s WALL (    1553 calls)
     g_psi        :      0.03s CPU      0.03s WALL (    1203 calls)

     Called by h_psi:
     h_psi:calbec :      0.20s CPU      0.22s WALL (    1553 calls)
     vloc_psi     :      1.33s CPU      1.59s WALL (    1553 calls)
     add_vuspsi   :      0.24s CPU      0.26s WALL (    1553 calls)

     General routines
     calbec       :      0.28s CPU      0.30s WALL (    2043 calls)
     fft          :      0.12s CPU      0.24s WALL (      99 calls)
     ffts         :      0.00s CPU      0.00s WALL (      36 calls)
     fftw         :      1.04s CPU      1.27s WALL (   53220 calls)

     Parallel routines

     PWSCF        :      4.50s CPU      5.09s WALL


   This run was terminated on:  13:47:21   4Nov2024            

=------------------------------------------------------------------------------=
   JOB DONE.
=------------------------------------------------------------------------------=
