
     Program PWSCF v.7.3.1 starts on  4Nov2024 at 13:51:47 

     This program is part of the open-source Quantum ESPRESSO suite
     for quantum simulation of materials; please cite
         "P. Giannozzi et al., J. Phys.:Condens. Matter 21 395502 (2009);
         "P. Giannozzi et al., J. Phys.:Condens. Matter 29 465901 (2017);
         "P. Giannozzi et al., J. Chem. Phys. 152 154105 (2020);
          URL http://www.quantum-espresso.org", 
     in publications or presentations arising from this work. More details at
     http://www.quantum-espresso.org/quote

     Parallel version (MPI), running on     1 processors

     MPI processes distributed on     1 nodes
     14420 MiB available memory on the printing compute node when the environment starts

     Waiting for input...
     Reading input from standard input

     Current dimensions of program PWSCF are:
     Max number of different atomic species (ntypx) = 10
     Max number of k-points (npk) =  40000
     Max angular momentum in pseudopotentials (lmaxx) =  4

     Subspace diagonalization in iterative solution of the eigenvalue problem:
     a serial algorithm will be used


     G-vector sticks info
     --------------------
     sticks:   dense  smooth     PW     G-vecs:    dense   smooth      PW
     Sum         151     151     61                 1243     1243     331

     Using Slab Decomposition



     bravais-lattice index     =            2
     lattice parameter (alat)  =       7.3700  a.u.
     unit-cell volume          =     100.0789 (a.u.)^3
     number of atoms/cell      =            1
     number of atomic types    =            1
     number of electrons       =        10.00
     number of Kohn-Sham states=           10
     kinetic-energy cutoff     =      20.0000  Ry
     charge density cutoff     =      80.0000  Ry
     scf convergence threshold =      1.0E-08
     mixing beta               =       0.7000
     number of iterations used =            8  plain     mixing
     Exchange-correlation=  SLA  PZ   NOGX NOGC
                           (   1   1   0   0   0   0   0)
     Non magnetic calculation with spin-orbit


     celldm(1)=   7.370000  celldm(2)=   0.000000  celldm(3)=   0.000000
     celldm(4)=   0.000000  celldm(5)=   0.000000  celldm(6)=   0.000000

     crystal axes: (cart. coord. in units of alat)
               a(1) = (  -0.500000   0.000000   0.500000 )  
               a(2) = (   0.000000   0.500000   0.500000 )  
               a(3) = (  -0.500000   0.500000   0.000000 )  

     reciprocal axes: (cart. coord. in units 2 pi/alat)
               b(1) = ( -1.000000 -1.000000  1.000000 )  
               b(2) = (  1.000000  1.000000  1.000000 )  
               b(3) = ( -1.000000  1.000000 -1.000000 )  


     PseudoPot. # 1 for Pt read from file:
     /home/dashlander/Desktop/Sem7/CPD/Assignment_3/pseudo/Pt.rel-pz-n-rrkjus.UPF
     MD5 check sum: 4baafe8ec1942611396c7a5466f52249
     Pseudo is Ultrasoft + core correction, Zval = 10.0
     Generated by new atomic code, or converted to UPF format
     Using radial grid of 1277 points,  6 beta functions with: 
                l(1) =   2
                l(2) =   2
                l(3) =   2
                l(4) =   2
                l(5) =   1
                l(6) =   1
     Q(r) pseudized with 0 coefficients 


     atomic species   valence    mass     pseudopotential
     Pt               10.00   195.08400     Pt( 1.00)

     48 Sym. Ops., with inversion, found



   Cartesian axes

     site n.     atom                  positions (alat units)
         1        Pt     tau(   1) = (   0.0000000   0.0000000   0.0000000  )

     number of k points=    44
                       cart. coord. in units 2pi/alat
        k(    1) = (  -0.0714286   0.0714286   0.0714286), wk =   0.0058309
        k(    2) = (  -0.2142857   0.2142857  -0.0714286), wk =   0.0174927
        k(    3) = (  -0.3571429   0.3571429  -0.2142857), wk =   0.0174927
        k(    4) = (   0.5000000  -0.5000000   0.6428571), wk =   0.0174927
        k(    5) = (   0.3571429  -0.3571429   0.5000000), wk =   0.0174927
        k(    6) = (   0.2142857  -0.2142857   0.3571429), wk =   0.0174927
        k(    7) = (   0.0714286  -0.0714286   0.2142857), wk =   0.0174927
        k(    8) = (  -0.0714286   0.3571429   0.0714286), wk =   0.0174927
        k(    9) = (  -0.2142857   0.5000000  -0.0714286), wk =   0.0349854
        k(   10) = (   0.6428571  -0.3571429   0.7857143), wk =   0.0349854
        k(   11) = (   0.5000000  -0.2142857   0.6428571), wk =   0.0349854
        k(   12) = (   0.3571429  -0.0714286   0.5000000), wk =   0.0349854
        k(   13) = (   0.2142857   0.0714286   0.3571429), wk =   0.0349854
        k(   14) = (  -0.0714286   0.6428571   0.0714286), wk =   0.0174927
        k(   15) = (   0.7857143  -0.2142857   0.9285714), wk =   0.0349854
        k(   16) = (   0.6428571  -0.0714286   0.7857143), wk =   0.0349854
        k(   17) = (   0.5000000   0.0714286   0.6428571), wk =   0.0349854
        k(   18) = (   0.3571429   0.2142857   0.5000000), wk =   0.0349854
        k(   19) = (  -0.0714286  -1.0714286   0.0714286), wk =   0.0174927
        k(   20) = (  -0.2142857  -0.9285714  -0.0714286), wk =   0.0349854
        k(   21) = (  -0.3571429  -0.7857143  -0.2142857), wk =   0.0349854
        k(   22) = (  -0.5000000  -0.6428571  -0.3571429), wk =   0.0174927
        k(   23) = (  -0.0714286  -0.7857143   0.0714286), wk =   0.0174927
        k(   24) = (  -0.2142857  -0.6428571  -0.0714286), wk =   0.0349854
        k(   25) = (  -0.0714286  -0.5000000   0.0714286), wk =   0.0174927
        k(   26) = (  -0.2142857   0.2142857   0.2142857), wk =   0.0058309
        k(   27) = (  -0.3571429   0.3571429   0.0714286), wk =   0.0174927
        k(   28) = (   0.5000000  -0.5000000   0.9285714), wk =   0.0174927
        k(   29) = (   0.3571429  -0.3571429   0.7857143), wk =   0.0174927
        k(   30) = (   0.2142857  -0.2142857   0.6428571), wk =   0.0174927
        k(   31) = (  -0.2142857   0.5000000   0.2142857), wk =   0.0174927
        k(   32) = (   0.6428571  -0.3571429   1.0714286), wk =   0.0349854
        k(   33) = (   0.5000000  -0.2142857   0.9285714), wk =   0.0349854
        k(   34) = (   0.3571429  -0.0714286   0.7857143), wk =   0.0349854
        k(   35) = (  -0.2142857  -1.2142857   0.2142857), wk =   0.0174927
        k(   36) = (  -0.3571429  -1.0714286   0.0714286), wk =   0.0349854
        k(   37) = (  -0.5000000  -0.9285714  -0.0714286), wk =   0.0174927
        k(   38) = (  -0.2142857  -0.9285714   0.2142857), wk =   0.0174927
        k(   39) = (  -0.3571429   0.3571429   0.3571429), wk =   0.0058309
        k(   40) = (   0.5000000  -0.5000000   1.2142857), wk =   0.0174927
        k(   41) = (   0.3571429  -0.3571429   1.0714286), wk =   0.0174927
        k(   42) = (  -0.3571429  -1.3571429   0.3571429), wk =   0.0174927
        k(   43) = (  -0.5000000  -1.2142857   0.2142857), wk =   0.0174927
        k(   44) = (   0.5000000  -0.5000000  -0.5000000), wk =   0.0029155

     Dense  grid:     1243 G-vectors     FFT dimensions: (  15,  15,  15)

     Estimated max dynamical RAM per process >      12.41 MB

     Check: negative core charge=   -0.000029

     Initial potential from superposition of free atoms

     starting charge       9.9999, renormalised to      10.0000

     negative rho (up, down):  1.043E-04 0.000E+00
     Starting wfcs are   12 randomized atomic wfcs

     total cpu time spent up to now is        0.4 secs

     Self-consistent Calculation

     iteration #  1     ecut=    20.00 Ry     beta= 0.70
     Davidson diagonalization with overlap
     ethr =  1.00E-02,  avg # of iterations =  2.3

     Threshold (ethr) on eigenvalues was too large:
     Diagonalizing with lowered threshold

     Davidson diagonalization with overlap
     ethr =  1.33E-05,  avg # of iterations =  8.9

     negative rho (up, down):  1.946E-04 0.000E+00

     total cpu time spent up to now is        1.1 secs

     total energy              =     -69.45483887 Ry
     estimated scf accuracy    <       0.00383066 Ry

     iteration #  2     ecut=    20.00 Ry     beta= 0.70
     Davidson diagonalization with overlap
     ethr =  3.83E-05,  avg # of iterations =  2.2

     negative rho (up, down):  2.191E-04 0.000E+00

     total cpu time spent up to now is        1.4 secs

     total energy              =     -69.45584379 Ry
     estimated scf accuracy    <       0.00045788 Ry

     iteration #  3     ecut=    20.00 Ry     beta= 0.70
     Davidson diagonalization with overlap
     ethr =  4.58E-06,  avg # of iterations =  2.2

     negative rho (up, down):  2.375E-04 0.000E+00

     total cpu time spent up to now is        1.7 secs

     total energy              =     -69.45592038 Ry
     estimated scf accuracy    <       0.00001376 Ry

     iteration #  4     ecut=    20.00 Ry     beta= 0.70
     Davidson diagonalization with overlap
     c_bands:  1 eigenvalues not converged
     ethr =  1.38E-07,  avg # of iterations =  6.5

     negative rho (up, down):  2.375E-04 0.000E+00

     total cpu time spent up to now is        2.0 secs

     total energy              =     -69.45646611 Ry
     estimated scf accuracy    <       0.00001697 Ry

     iteration #  5     ecut=    20.00 Ry     beta= 0.70
     Davidson diagonalization with overlap
     ethr =  1.38E-07,  avg # of iterations =  1.1

     negative rho (up, down):  2.380E-04 0.000E+00

     total cpu time spent up to now is        2.2 secs

     total energy              =     -69.45645882 Ry
     estimated scf accuracy    <       0.00001097 Ry

     iteration #  6     ecut=    20.00 Ry     beta= 0.70
     Davidson diagonalization with overlap
     ethr =  1.10E-07,  avg # of iterations =  2.6

     negative rho (up, down):  2.382E-04 0.000E+00

     total cpu time spent up to now is        2.5 secs

     total energy              =     -69.45646262 Ry
     estimated scf accuracy    <       0.00000082 Ry

     iteration #  7     ecut=    20.00 Ry     beta= 0.70
     Davidson diagonalization with overlap
     ethr =  8.17E-09,  avg # of iterations =  4.0

     negative rho (up, down):  2.382E-04 0.000E+00

     total cpu time spent up to now is        2.7 secs

     total energy              =     -69.45646290 Ry
     estimated scf accuracy    <       0.00000022 Ry

     iteration #  8     ecut=    20.00 Ry     beta= 0.70
     Davidson diagonalization with overlap
     ethr =  2.17E-09,  avg # of iterations =  1.9

     negative rho (up, down):  2.382E-04 0.000E+00

     total cpu time spent up to now is        2.9 secs

     total energy              =     -69.45646300 Ry
     estimated scf accuracy    <       0.00000014 Ry

     iteration #  9     ecut=    20.00 Ry     beta= 0.70
     Davidson diagonalization with overlap
     ethr =  1.39E-09,  avg # of iterations =  1.8

     negative rho (up, down):  2.383E-04 0.000E+00

     total cpu time spent up to now is        3.1 secs

     total energy              =     -69.45646280 Ry
     estimated scf accuracy    <       0.00000032 Ry

     iteration # 10     ecut=    20.00 Ry     beta= 0.70
     Davidson diagonalization with overlap
     ethr =  1.39E-09,  avg # of iterations =  2.9

     negative rho (up, down):  2.383E-04 0.000E+00

     total cpu time spent up to now is        3.4 secs

     End of self-consistent calculation

          k =-0.0714 0.0714 0.0714 (   159 PWs)   bands (ev):

     7.7720   7.7720  13.7568  13.7568  13.8252  13.8252  14.8007  14.8007
    16.5291  16.5291

          k =-0.2143 0.2143-0.0714 (   154 PWs)   bands (ev):

     8.7963   8.7963  13.5249  13.5249  14.0368  14.0368  15.1180  15.1180
    16.1443  16.1443

          k =-0.3571 0.3571-0.2143 (   149 PWs)   bands (ev):

    10.3859  10.3859  13.7877  13.7877  14.0531  14.0531  15.0162  15.0162
    16.7438  16.7438

          k = 0.5000-0.5000 0.6429 (   154 PWs)   bands (ev):

    10.7014  10.7014  13.5955  13.5955  14.6113  14.6113  16.1739  16.1739
    17.9428  17.9428

          k = 0.3571-0.3571 0.5000 (   149 PWs)   bands (ev):

    10.6830  10.6830  13.6555  13.6555  14.6859  14.6859  15.4381  15.4381
    17.9306  17.9306

          k = 0.2143-0.2143 0.3571 (   150 PWs)   bands (ev):

     9.9465   9.9465  13.5129  13.5129  14.0165  14.0165  15.1752  15.1752
    16.5099  16.5099

          k = 0.0714-0.0714 0.2143 (   158 PWs)   bands (ev):

     8.3048   8.3048  13.5762  13.5762  14.0163  14.0163  14.9747  14.9747
    16.2382  16.2382

          k =-0.0714 0.3571 0.0714 (   156 PWs)   bands (ev):

     9.2867   9.2867  13.1296  13.1296  14.2937  14.2937  15.4206  15.4206
    15.9303  15.9303

          k =-0.2143 0.5000-0.0714 (   149 PWs)   bands (ev):

    10.7861  10.7861  12.7692  12.7692  14.0303  14.0303  15.7570  15.7570
    16.5450  16.5450

          k = 0.6429-0.3571 0.7857 (   152 PWs)   bands (ev):

    11.4822  11.4822  13.2743  13.2743  14.0340  14.0340  15.4286  15.4286
    17.9889  17.9889

          k = 0.5000-0.2143 0.6429 (   153 PWs)   bands (ev):

    11.5789  11.5789  13.2276  13.2276  14.4928  14.4928  15.3020  15.3020
    17.8070  17.8070

          k = 0.3571-0.0714 0.5000 (   149 PWs)   bands (ev):

    11.3284  11.3284  13.1264  13.1264  13.7602  13.7602  15.4998  15.4998
    16.4790  16.4790

          k = 0.2143 0.0714 0.3571 (   150 PWs)   bands (ev):

     9.7007   9.7007  13.2185  13.2185  14.1439  14.1439  15.3902  15.3902
    16.0111  16.0111

          k =-0.0714 0.6429 0.0714 (   149 PWs)   bands (ev):

    11.1015  11.1015  12.0114  12.0114  14.9796  14.9796  16.7245  16.7245
    17.3153  17.3153

          k = 0.7857-0.2143 0.9286 (   150 PWs)   bands (ev):

    11.4140  11.4140  11.9333  11.9333  15.1165  15.1165  17.1201  17.1201
    18.1785  18.1785

          k = 0.6429-0.0714 0.7857 (   150 PWs)   bands (ev):

    11.8952  11.8952  12.6625  12.6625  14.3921  14.3921  16.3729  16.3729
    18.0834  18.0834

          k = 0.5000 0.0714 0.6429 (   151 PWs)   bands (ev):

    12.2757  12.2757  13.0532  13.0532  13.6537  13.6537  15.7424  15.7424
    17.2871  17.2871

          k = 0.3571 0.2143 0.5000 (   149 PWs)   bands (ev):

    10.9361  10.9361  13.6806  13.6806  14.1181  14.1181  15.0353  15.0353
    17.3078  17.3078

          k =-0.0714-1.0714 0.0714 (   150 PWs)   bands (ev):

    10.8680  10.8680  11.3739  11.3739  17.3649  17.3649  17.8715  17.8715
    18.8090  18.8090

          k =-0.2143-0.9286-0.0714 (   152 PWs)   bands (ev):

    11.2320  11.2320  11.7266  11.7266  15.9671  15.9671  17.4049  17.4049
    18.6359  18.6359

          k =-0.3571-0.7857-0.2143 (   151 PWs)   bands (ev):

    11.8364  11.8364  12.8339  12.8339  14.1653  14.1653  15.9710  15.9710
    18.1672  18.1672

          k =-0.5000-0.6429-0.3571 (   156 PWs)   bands (ev):

    11.0099  11.0099  13.4713  13.4713  14.6595  14.6595  15.6801  15.6801
    18.1156  18.1156

          k =-0.0714-0.7857 0.0714 (   154 PWs)   bands (ev):

    11.0449  11.0449  11.5958  11.5958  16.3290  16.3290  17.4710  17.4710
    18.2251  18.2251

          k =-0.2143-0.6429-0.0714 (   148 PWs)   bands (ev):

    11.4615  11.4615  12.3128  12.3128  14.2069  14.2069  16.4273  16.4273
    17.4379  17.4379

          k =-0.0714-0.5000 0.0714 (   151 PWs)   bands (ev):

    10.4423  10.4423  12.5571  12.5571  14.3984  14.3984  15.9646  15.9646
    16.3723  16.3723

          k =-0.2143 0.2143 0.2143 (   150 PWs)   bands (ev):

     9.2064   9.2064  13.6061  13.6061  13.9766  13.9766  15.1574  15.1574
    16.3240  16.3240

          k =-0.3571 0.3571 0.0714 (   149 PWs)   bands (ev):

    10.4422  10.4422  13.2495  13.2495  14.0444  14.0444  15.3515  15.3515
    16.0055  16.0055

          k = 0.5000-0.5000 0.9286 (   150 PWs)   bands (ev):

    11.8461  11.8461  13.3200  13.3200  13.7254  13.7254  15.3457  15.3457
    16.7093  16.7093

          k = 0.3571-0.3571 0.7857 (   155 PWs)   bands (ev):

    11.6798  11.6798  13.1112  13.1112  14.4628  14.4628  15.4689  15.4689
    18.0144  18.0144

          k = 0.2143-0.2143 0.6429 (   149 PWs)   bands (ev):

    11.4255  11.4255  12.8245  12.8245  14.0157  14.0157  15.7610  15.7610
    18.1508  18.1508

          k =-0.2143 0.5000 0.2143 (   150 PWs)   bands (ev):

    10.8176  10.8176  13.2605  13.2605  13.9002  13.9002  15.2951  15.2951
    17.3034  17.3034

          k = 0.6429-0.3571 1.0714 (   149 PWs)   bands (ev):

    12.0073  12.0073  12.8835  12.8835  13.4559  13.4559  16.0812  16.0812
    17.2656  17.2656

          k = 0.5000-0.2143 0.9286 (   153 PWs)   bands (ev):

    12.4903  12.4903  12.7889  12.7889  13.5696  13.5696  16.1406  16.1406
    17.9750  17.9750

          k = 0.3571-0.0714 0.7857 (   152 PWs)   bands (ev):

    12.0400  12.0400  12.5326  12.5326  13.9170  13.9170  16.5895  16.5895
    18.0117  18.0117

          k =-0.2143-1.2143 0.2143 (   148 PWs)   bands (ev):

    11.5268  11.5268  12.3656  12.3656  14.7118  14.7118  16.4023  16.4023
    18.4002  18.4002

          k =-0.3571-1.0714 0.0714 (   150 PWs)   bands (ev):

    11.8366  11.8366  12.3771  12.3771  14.5135  14.5135  16.6450  16.6450
    18.5520  18.5520

          k =-0.5000-0.9286-0.0714 (   152 PWs)   bands (ev):

    12.2295  12.2295  13.1090  13.1090  13.4639  13.4639  16.1991  16.1991
    18.5291  18.5291

          k =-0.2143-0.9286 0.2143 (   148 PWs)   bands (ev):

    11.4342  11.4342  12.1266  12.1266  15.3719  15.3719  16.9300  16.9300
    18.3427  18.3427

          k =-0.3571 0.3571 0.3571 (   153 PWs)   bands (ev):

    10.4347  10.4347  13.7532  13.7532  14.7901  14.7901  14.9912  14.9912
    17.3159  17.3159

          k = 0.5000-0.5000 1.2143 (   153 PWs)   bands (ev):

    11.1825  11.1825  13.5433  13.5433  14.6279  14.6279  14.9986  14.9986
    17.3760  17.3760

          k = 0.3571-0.3571 1.0714 (   151 PWs)   bands (ev):

    12.0635  12.0635  13.0159  13.0159  14.0995  14.0995  15.9149  15.9149
    17.5926  17.5926

          k =-0.3571-1.3571 0.3571 (   153 PWs)   bands (ev):

    11.1303  11.1303  13.4310  13.4310  14.6515  14.6515  15.3002  15.3002
    18.2471  18.2471

          k =-0.5000-1.2143 0.2143 (   152 PWs)   bands (ev):

    12.1146  12.1146  12.8216  12.8216  14.1024  14.1024  15.7542  15.7542
    17.9984  17.9984

          k = 0.5000-0.5000-0.5000 (   156 PWs)   bands (ev):

    10.5335  10.5335  13.5810  13.5810  14.5825  14.5825  17.3249  17.3249
    17.8889  17.8889

     highest occupied level (ev):    18.8090

!    total energy              =     -69.45646288 Ry
     estimated scf accuracy    <          6.6E-09 Ry

     The total energy is the sum of the following terms:
     one-electron contribution =      17.64968333 Ry
     hartree contribution      =       3.67929776 Ry
     xc contribution           =     -28.57564647 Ry
     ewald contribution        =     -62.20979750 Ry

     convergence has been achieved in  10 iterations

     negative rho (up, down):  2.383E-04 0.000E+00

     Forces acting on atoms (cartesian axes, Ry/au):

     atom    1 type  1   force =     0.00000000    0.00000000    0.00000000

     Total force =     0.000000     Total SCF correction =     0.000000


     Computing stress (Cartesian axis) and pressure


     negative rho (up, down):  2.383E-04 0.000E+00
          total   stress  (Ry/bohr**3)                   (kbar)     P=      120.96
   0.00082225   0.00000000   0.00000000          120.96        0.00        0.00
   0.00000000   0.00082225  -0.00000000            0.00      120.96       -0.00
   0.00000000  -0.00000000   0.00082225            0.00       -0.00      120.96


     Writing all to output data dir ./platinum.save/ :
     XML data file, charge density, pseudopotentials, collected wavefunctions

     init_run     :      0.25s CPU      0.29s WALL (       1 calls)
     electrons    :      2.66s CPU      3.01s WALL (       1 calls)
     forces       :      0.04s CPU      0.04s WALL (       1 calls)
     stress       :      0.18s CPU      0.18s WALL (       1 calls)

     Called by init_run:
     wfcinit      :      0.07s CPU      0.09s WALL (       1 calls)
     potinit      :      0.01s CPU      0.01s WALL (       1 calls)
     hinit0       :      0.16s CPU      0.17s WALL (       1 calls)

     Called by electrons:
     c_bands      :      2.11s CPU      2.39s WALL (      11 calls)
     sum_band     :      0.43s CPU      0.50s WALL (      11 calls)
     v_of_rho     :      0.00s CPU      0.00s WALL (      11 calls)
     newd         :      0.12s CPU      0.12s WALL (      11 calls)
     mix_rho      :      0.00s CPU      0.00s WALL (      11 calls)

     Called by c_bands:
     init_us_2    :      0.04s CPU      0.04s WALL (    1100 calls)
     cegterg      :      1.97s CPU      2.24s WALL (     485 calls)

     Called by *egterg:
     cdiaghg      :      0.13s CPU      0.14s WALL (    2040 calls)
     h_psi        :      1.17s CPU      1.35s WALL (    2129 calls)
     s_psi        :      0.18s CPU      0.21s WALL (    2129 calls)
     g_psi        :      0.02s CPU      0.02s WALL (    1600 calls)

     Called by h_psi:
     h_psi:calbec :      0.15s CPU      0.16s WALL (    2129 calls)
     vloc_psi     :      0.82s CPU      0.94s WALL (    2129 calls)
     add_vuspsi   :      0.18s CPU      0.21s WALL (    2129 calls)

     General routines
     calbec       :      0.20s CPU      0.23s WALL (    2833 calls)
     fft          :      0.02s CPU      0.03s WALL (     119 calls)
     ffts         :      0.00s CPU      0.00s WALL (      44 calls)
     fftw         :      0.61s CPU      0.72s WALL (   74036 calls)

     Parallel routines

     PWSCF        :      3.22s CPU      3.62s WALL


   This run was terminated on:  13:51:51   4Nov2024            

=------------------------------------------------------------------------------=
   JOB DONE.
=------------------------------------------------------------------------------=
