
     Program PWSCF v.7.3.1 starts on  4Nov2024 at 22: 0:14 

     This program is part of the open-source Quantum ESPRESSO suite
     for quantum simulation of materials; please cite
         "P. Giannozzi et al., J. Phys.:Condens. Matter 21 395502 (2009);
         "P. Giannozzi et al., J. Phys.:Condens. Matter 29 465901 (2017);
         "P. Giannozzi et al., J. Chem. Phys. 152 154105 (2020);
          URL http://www.quantum-espresso.org", 
     in publications or presentations arising from this work. More details at
     http://www.quantum-espresso.org/quote

     Parallel version (MPI), running on     1 processors

     MPI processes distributed on     1 nodes
     11907 MiB available memory on the printing compute node when the environment starts

     Waiting for input...
     Reading input from standard input

     Current dimensions of program PWSCF are:
     Max number of different atomic species (ntypx) = 10
     Max number of k-points (npk) =  40000
     Max angular momentum in pseudopotentials (lmaxx) =  4

     Subspace diagonalization in iterative solution of the eigenvalue problem:
     a serial algorithm will be used


     G-vector sticks info
     --------------------
     sticks:   dense  smooth     PW     G-vecs:    dense   smooth      PW
     Sum         139     139     55                 1067     1067     283

     Using Slab Decomposition



     bravais-lattice index     =            2
     lattice parameter (alat)  =       7.1600  a.u.
     unit-cell volume          =      91.7654 (a.u.)^3
     number of atoms/cell      =            1
     number of atomic types    =            1
     number of electrons       =        10.00
     number of Kohn-Sham states=           10
     kinetic-energy cutoff     =      20.0000  Ry
     charge density cutoff     =      80.0000  Ry
     scf convergence threshold =      1.0E-08
     mixing beta               =       0.7000
     number of iterations used =            8  plain     mixing
     Exchange-correlation=  SLA  PZ   NOGX NOGC
                           (   1   1   0   0   0   0   0)
     Non magnetic calculation with spin-orbit


     celldm(1)=   7.160000  celldm(2)=   0.000000  celldm(3)=   0.000000
     celldm(4)=   0.000000  celldm(5)=   0.000000  celldm(6)=   0.000000

     crystal axes: (cart. coord. in units of alat)
               a(1) = (  -0.500000   0.000000   0.500000 )  
               a(2) = (   0.000000   0.500000   0.500000 )  
               a(3) = (  -0.500000   0.500000   0.000000 )  

     reciprocal axes: (cart. coord. in units 2 pi/alat)
               b(1) = ( -1.000000 -1.000000  1.000000 )  
               b(2) = (  1.000000  1.000000  1.000000 )  
               b(3) = ( -1.000000  1.000000 -1.000000 )  


     PseudoPot. # 1 for Pt read from file:
     /home/dashlander/Desktop/Sem7/CPD/Assignment_3/pseudo/Pt.rel-pz-n-rrkjus.UPF
     MD5 check sum: 4baafe8ec1942611396c7a5466f52249
     Pseudo is Ultrasoft + core correction, Zval = 10.0
     Generated by new atomic code, or converted to UPF format
     Using radial grid of 1277 points,  6 beta functions with: 
                l(1) =   2
                l(2) =   2
                l(3) =   2
                l(4) =   2
                l(5) =   1
                l(6) =   1
     Q(r) pseudized with 0 coefficients 


     atomic species   valence    mass     pseudopotential
     Pt               10.00   195.08400     Pt( 1.00)

     48 Sym. Ops., with inversion, found



   Cartesian axes

     site n.     atom                  positions (alat units)
         1        Pt     tau(   1) = (   0.0000000   0.0000000   0.0000000  )

     number of k points=    35
                       cart. coord. in units 2pi/alat
        k(    1) = (   0.0000000   0.0000000   0.0000000), wk =   0.0013717
        k(    2) = (  -0.1111111   0.1111111  -0.1111111), wk =   0.0109739
        k(    3) = (  -0.2222222   0.2222222  -0.2222222), wk =   0.0109739
        k(    4) = (  -0.3333333   0.3333333  -0.3333333), wk =   0.0109739
        k(    5) = (  -0.4444444   0.4444444  -0.4444444), wk =   0.0109739
        k(    6) = (   0.0000000   0.2222222   0.0000000), wk =   0.0082305
        k(    7) = (  -0.1111111   0.3333333  -0.1111111), wk =   0.0329218
        k(    8) = (  -0.2222222   0.4444444  -0.2222222), wk =   0.0329218
        k(    9) = (  -0.3333333   0.5555556  -0.3333333), wk =   0.0329218
        k(   10) = (   0.5555556  -0.3333333   0.5555556), wk =   0.0329218
        k(   11) = (   0.4444444  -0.2222222   0.4444444), wk =   0.0329218
        k(   12) = (   0.3333333  -0.1111111   0.3333333), wk =   0.0329218
        k(   13) = (   0.2222222  -0.0000000   0.2222222), wk =   0.0164609
        k(   14) = (   0.0000000   0.4444444   0.0000000), wk =   0.0082305
        k(   15) = (  -0.1111111   0.5555556  -0.1111111), wk =   0.0329218
        k(   16) = (  -0.2222222   0.6666667  -0.2222222), wk =   0.0329218
        k(   17) = (   0.6666667  -0.2222222   0.6666667), wk =   0.0329218
        k(   18) = (   0.5555556  -0.1111111   0.5555556), wk =   0.0329218
        k(   19) = (   0.4444444   0.0000000   0.4444444), wk =   0.0164609
        k(   20) = (   0.0000000   0.6666667   0.0000000), wk =   0.0082305
        k(   21) = (  -0.1111111   0.7777778  -0.1111111), wk =   0.0329218
        k(   22) = (   0.7777778  -0.1111111   0.7777778), wk =   0.0329218
        k(   23) = (   0.6666667  -0.0000000   0.6666667), wk =   0.0164609
        k(   24) = (   0.0000000   0.8888889   0.0000000), wk =   0.0082305
        k(   25) = (   0.8888889   0.0000000   0.8888889), wk =   0.0164609
        k(   26) = (  -0.2222222   0.4444444   0.0000000), wk =   0.0329218
        k(   27) = (  -0.3333333   0.5555556  -0.1111111), wk =   0.0658436
        k(   28) = (   0.5555556  -0.3333333   0.7777778), wk =   0.0658436
        k(   29) = (  -0.2222222   0.6666667   0.0000000), wk =   0.0329218
        k(   30) = (   0.6666667  -0.2222222   0.8888889), wk =   0.0658436
        k(   31) = (   0.5555556  -0.1111111   0.7777778), wk =   0.0658436
        k(   32) = (   0.4444444   0.0000000   0.6666667), wk =   0.0329218
        k(   33) = (   0.7777778  -0.1111111   1.0000000), wk =   0.0329218
        k(   34) = (   0.6666667  -0.0000000   0.8888889), wk =   0.0329218
        k(   35) = (   0.5555556  -0.1111111   1.0000000), wk =   0.0329218

     Dense  grid:     1067 G-vectors     FFT dimensions: (  15,  15,  15)

     Estimated max dynamical RAM per process >      10.59 MB

     Check: negative core charge=   -0.000045

     Initial potential from superposition of free atoms

     starting charge       9.9999, renormalised to      10.0000

     negative rho (up, down):  1.634E-04 0.000E+00
     Starting wfcs are   12 randomized atomic wfcs

     total cpu time spent up to now is        0.4 secs

     Self-consistent Calculation

     iteration #  1     ecut=    20.00 Ry     beta= 0.70
     Davidson diagonalization with overlap
     ethr =  1.00E-02,  avg # of iterations =  2.3

     Threshold (ethr) on eigenvalues was too large:
     Diagonalizing with lowered threshold

     Davidson diagonalization with overlap
     ethr =  1.17E-05,  avg # of iterations =  7.8

     negative rho (up, down):  2.601E-04 0.000E+00

     total cpu time spent up to now is        0.9 secs

     total energy              =     -69.43786367 Ry
     estimated scf accuracy    <       0.00447679 Ry

     iteration #  2     ecut=    20.00 Ry     beta= 0.70
     Davidson diagonalization with overlap
     ethr =  4.48E-05,  avg # of iterations =  2.1

     negative rho (up, down):  2.882E-04 0.000E+00

     total cpu time spent up to now is        1.1 secs

     total energy              =     -69.43900512 Ry
     estimated scf accuracy    <       0.00040505 Ry

     iteration #  3     ecut=    20.00 Ry     beta= 0.70
     Davidson diagonalization with overlap
     ethr =  4.05E-06,  avg # of iterations =  2.1

     negative rho (up, down):  3.074E-04 0.000E+00

     total cpu time spent up to now is        1.3 secs

     total energy              =     -69.43906886 Ry
     estimated scf accuracy    <       0.00001301 Ry

     iteration #  4     ecut=    20.00 Ry     beta= 0.70
     Davidson diagonalization with overlap
     ethr =  1.30E-07,  avg # of iterations =  6.0

     negative rho (up, down):  3.076E-04 0.000E+00

     total cpu time spent up to now is        1.6 secs

     total energy              =     -69.43908418 Ry
     estimated scf accuracy    <       0.00000176 Ry

     iteration #  5     ecut=    20.00 Ry     beta= 0.70
     Davidson diagonalization with overlap
     ethr =  1.76E-08,  avg # of iterations =  3.3

     negative rho (up, down):  3.083E-04 0.000E+00

     total cpu time spent up to now is        1.8 secs

     total energy              =     -69.43908441 Ry
     estimated scf accuracy    <       0.00000019 Ry

     iteration #  6     ecut=    20.00 Ry     beta= 0.70
     Davidson diagonalization with overlap
     ethr =  1.91E-09,  avg # of iterations =  4.6

     negative rho (up, down):  3.084E-04 0.000E+00

     total cpu time spent up to now is        2.0 secs

     total energy              =     -69.43908453 Ry
     estimated scf accuracy    <       0.00000002 Ry

     iteration #  7     ecut=    20.00 Ry     beta= 0.70
     Davidson diagonalization with overlap
     ethr =  1.78E-10,  avg # of iterations =  3.9

     negative rho (up, down):  3.084E-04 0.000E+00

     total cpu time spent up to now is        2.2 secs

     End of self-consistent calculation

          k = 0.0000 0.0000 0.0000 (   137 PWs)   bands (ev):

     8.9147   8.9147  15.5786  15.5786  15.5786  15.5786  16.5515  16.5515
    18.7073  18.7073

          k =-0.1111 0.1111-0.1111 (   147 PWs)   bands (ev):

     9.4475   9.4475  15.5003  15.5003  15.7136  15.7136  16.6851  16.6851
    18.5159  18.5159

          k =-0.2222 0.2222-0.2222 (   150 PWs)   bands (ev):

    10.7791  10.7791  15.3611  15.3611  15.8243  15.8243  17.0059  17.0059
    18.4377  18.4377

          k =-0.3333 0.3333-0.3333 (   144 PWs)   bands (ev):

    11.8053  11.8053  15.6185  15.6185  16.3802  16.3802  16.7312  16.7312
    19.3373  19.3373

          k =-0.4444 0.4444-0.4444 (   147 PWs)   bands (ev):

    11.9414  11.9414  15.3889  15.3889  16.3936  16.3936  18.7395  18.7395
    20.1889  20.1889

          k = 0.0000 0.2222 0.0000 (   145 PWs)   bands (ev):

     9.6286   9.6286  15.2972  15.2972  15.9026  15.9026  16.7895  16.7895
    18.2262  18.2262

          k =-0.1111 0.3333-0.1111 (   143 PWs)   bands (ev):

    10.7336  10.7336  14.9445  14.9445  16.0743  16.0743  17.2026  17.2026
    18.0389  18.0389

          k =-0.2222 0.4444-0.2222 (   142 PWs)   bands (ev):

    12.0179  12.0179  15.1696  15.1696  15.7645  15.7645  17.0311  17.0311
    19.1541  19.1541

          k =-0.3333 0.5556-0.3333 (   140 PWs)   bands (ev):

    12.3593  12.3593  15.3522  15.3522  16.4453  16.4453  17.0030  17.0030
    20.4873  20.4873

          k = 0.5556-0.3333 0.5556 (   138 PWs)   bands (ev):

    12.3689  12.3689  15.2620  15.2620  16.4268  16.4268  17.7777  17.7777
    20.4011  20.4011

          k = 0.4444-0.2222 0.4444 (   141 PWs)   bands (ev):

    12.3769  12.3769  15.4725  15.4725  16.3732  16.3732  16.7107  16.7107
    19.3585  19.3585

          k = 0.3333-0.1111 0.3333 (   140 PWs)   bands (ev):

    11.6907  11.6907  15.0843  15.0843  15.8965  15.8965  17.1171  17.1171
    18.1717  18.1717

          k = 0.2222-0.0000 0.2222 (   143 PWs)   bands (ev):

    10.2791  10.2791  15.2150  15.2150  15.9268  15.9268  16.9912  16.9912
    18.0871  18.0871

          k = 0.0000 0.4444 0.0000 (   133 PWs)   bands (ev):

    11.4268  11.4268  14.3435  14.3435  16.4077  16.4077  17.8537  17.8537
    17.8610  17.8610

          k =-0.1111 0.5556-0.1111 (   139 PWs)   bands (ev):

    12.4539  12.4539  13.9940  13.9940  16.1547  16.1547  18.0537  18.0537
    19.1785  19.1785

          k =-0.2222 0.6667-0.2222 (   138 PWs)   bands (ev):

    12.9728  12.9728  14.4191  14.4191  15.8887  15.8887  17.7834  17.7834
    20.6373  20.6373

          k = 0.6667-0.2222 0.6667 (   138 PWs)   bands (ev):

    13.1904  13.1904  14.6991  14.6991  16.2299  16.2299  17.4929  17.4929
    20.4871  20.4871

          k = 0.5556-0.1111 0.5556 (   135 PWs)   bands (ev):

    13.4960  13.4960  14.9275  14.9275  15.7946  15.7946  17.3025  17.3025
    19.3918  19.3918

          k = 0.4444 0.0000 0.4444 (   140 PWs)   bands (ev):

    13.1298  13.1298  14.7861  14.7861  15.5580  15.5580  17.3584  17.3584
    18.2379  18.2379

          k = 0.0000 0.6667 0.0000 (   133 PWs)   bands (ev):

    12.4792  12.4792  13.3299  13.3299  17.5836  17.5836  19.2626  19.2626
    19.3803  19.3803

          k =-0.1111 0.7778-0.1111 (   135 PWs)   bands (ev):

    12.5972  12.5972  13.2022  13.2022  17.7790  17.7790  19.3777  19.3777
    20.7196  20.7196

          k = 0.7778-0.1111 0.7778 (   133 PWs)   bands (ev):

    12.9242  12.9242  13.7607  13.7607  17.0691  17.0691  18.8967  18.8967
    20.7300  20.7300

          k = 0.6667-0.0000 0.6667 (   136 PWs)   bands (ev):

    13.5104  13.5104  14.5665  14.5665  15.9958  15.9958  18.2097  18.2097
    19.9125  19.9125

          k = 0.0000 0.8889 0.0000 (   133 PWs)   bands (ev):

    12.1539  12.1539  12.7287  12.7287  20.2297  20.2297  20.3412  20.3412
    21.2047  21.2047

          k = 0.8889 0.0000 0.8889 (   138 PWs)   bands (ev):

    12.3279  12.3279  12.9024  12.9024  19.0874  19.0874  20.0412  20.0412
    21.1724  21.1724

          k =-0.2222 0.4444 0.0000 (   143 PWs)   bands (ev):

    11.9417  11.9417  14.5325  14.5325  15.9347  15.9347  17.7251  17.7251
    18.0184  18.0184

          k =-0.3333 0.5556-0.1111 (   141 PWs)   bands (ev):

    13.0120  13.0120  14.8396  14.8396  15.3797  15.3797  17.5174  17.5174
    19.1899  19.1899

          k = 0.5556-0.3333 0.7778 (   140 PWs)   bands (ev):

    13.1118  13.1118  14.8575  14.8575  16.1762  16.1762  17.2709  17.2709
    20.2488  20.2488

          k =-0.2222 0.6667 0.0000 (   139 PWs)   bands (ev):

    13.0555  13.0555  13.7054  13.7054  16.1353  16.1353  19.0625  19.0625
    19.3818  19.3818

          k = 0.6667-0.2222 0.8889 (   138 PWs)   bands (ev):

    13.3882  13.3882  14.1026  14.1026  15.8808  15.8808  18.5863  18.5863
    20.4298  20.4298

          k = 0.5556-0.1111 0.7778 (   139 PWs)   bands (ev):

    13.8138  13.8138  14.3967  14.3967  15.6627  15.6627  18.0715  18.0715
    20.3149  20.3149

          k = 0.4444 0.0000 0.6667 (   136 PWs)   bands (ev):

    14.2450  14.2450  14.5649  14.5649  14.7960  14.7960  18.0909  18.0909
    19.4429  19.4429

          k = 0.7778-0.1111 1.0000 (   135 PWs)   bands (ev):

    12.6870  12.6870  13.1957  13.1957  17.7679  17.7679  19.7148  19.7148
    20.9657  20.9657

          k = 0.6667-0.0000 0.8889 (   132 PWs)   bands (ev):

    13.1617  13.1617  13.8464  13.8464  16.6885  16.6885  18.8420  18.8420
    20.9409  20.9409

          k = 0.5556-0.1111 1.0000 (   137 PWs)   bands (ev):

    13.6988  13.6988  14.5464  14.5464  15.3600  15.3600  18.3653  18.3653
    20.9090  20.9090

     highest occupied level (ev):    21.2047

!    total energy              =     -69.43908454 Ry
     estimated scf accuracy    <          7.2E-09 Ry

     The total energy is the sum of the following terms:
     one-electron contribution =      20.07011470 Ry
     hartree contribution      =       3.21876882 Ry
     xc contribution           =     -28.69358150 Ry
     ewald contribution        =     -64.03438656 Ry

     convergence has been achieved in   7 iterations

     negative rho (up, down):  3.084E-04 0.000E+00

     Forces acting on atoms (cartesian axes, Ry/au):

     atom    1 type  1   force =     0.00000000    0.00000000    0.00000000

     Total force =     0.000000     Total SCF correction =     0.000000


     Computing stress (Cartesian axis) and pressure


     negative rho (up, down):  3.084E-04 0.000E+00
          total   stress  (Ry/bohr**3)                   (kbar)     P=      496.43
   0.00337463  -0.00000000  -0.00000000          496.43       -0.00       -0.00
  -0.00000000   0.00337463   0.00000000           -0.00      496.43        0.00
  -0.00000000  -0.00000000   0.00337463           -0.00       -0.00      496.43


     Writing all to output data dir ./platinum.save/ :
     XML data file, charge density, pseudopotentials, collected wavefunctions

     init_run     :      0.25s CPU      0.27s WALL (       1 calls)
     electrons    :      1.59s CPU      1.84s WALL (       1 calls)
     forces       :      0.03s CPU      0.03s WALL (       1 calls)
     stress       :      0.14s CPU      0.14s WALL (       1 calls)

     Called by init_run:
     wfcinit      :      0.06s CPU      0.07s WALL (       1 calls)
     potinit      :      0.01s CPU      0.01s WALL (       1 calls)
     hinit0       :      0.17s CPU      0.17s WALL (       1 calls)

     Called by electrons:
     c_bands      :      1.27s CPU      1.48s WALL (       8 calls)
     sum_band     :      0.24s CPU      0.28s WALL (       8 calls)
     v_of_rho     :      0.00s CPU      0.00s WALL (       8 calls)
     newd         :      0.08s CPU      0.08s WALL (       8 calls)
     mix_rho      :      0.00s CPU      0.00s WALL (       8 calls)

     Called by c_bands:
     init_us_2    :      0.02s CPU      0.02s WALL (     665 calls)
     cegterg      :      1.21s CPU      1.40s WALL (     280 calls)

     Called by *egterg:
     cdiaghg      :      0.08s CPU      0.09s WALL (    1370 calls)
     h_psi        :      0.73s CPU      0.85s WALL (    1440 calls)
     s_psi        :      0.11s CPU      0.12s WALL (    1440 calls)
     g_psi        :      0.01s CPU      0.01s WALL (    1125 calls)

     Called by h_psi:
     h_psi:calbec :      0.08s CPU      0.10s WALL (    1440 calls)
     vloc_psi     :      0.52s CPU      0.61s WALL (    1440 calls)
     add_vuspsi   :      0.11s CPU      0.12s WALL (    1440 calls)

     General routines
     calbec       :      0.11s CPU      0.13s WALL (    1895 calls)
     fft          :      0.03s CPU      0.03s WALL (      89 calls)
     ffts         :      0.00s CPU      0.00s WALL (      32 calls)
     fftw         :      0.39s CPU      0.46s WALL (   47068 calls)

     Parallel routines

     PWSCF        :      2.11s CPU      2.38s WALL


   This run was terminated on:  22: 0:16   4Nov2024            

=------------------------------------------------------------------------------=
   JOB DONE.
=------------------------------------------------------------------------------=
