
     Program PWSCF v.7.3.1 starts on  4Nov2024 at 13:51:35 

     This program is part of the open-source Quantum ESPRESSO suite
     for quantum simulation of materials; please cite
         "P. Giannozzi et al., J. Phys.:Condens. Matter 21 395502 (2009);
         "P. Giannozzi et al., J. Phys.:Condens. Matter 29 465901 (2017);
         "P. Giannozzi et al., J. Chem. Phys. 152 154105 (2020);
          URL http://www.quantum-espresso.org", 
     in publications or presentations arising from this work. More details at
     http://www.quantum-espresso.org/quote

     Parallel version (MPI), running on     1 processors

     MPI processes distributed on     1 nodes
     14403 MiB available memory on the printing compute node when the environment starts

     Waiting for input...
     Reading input from standard input

     Current dimensions of program PWSCF are:
     Max number of different atomic species (ntypx) = 10
     Max number of k-points (npk) =  40000
     Max angular momentum in pseudopotentials (lmaxx) =  4

     Subspace diagonalization in iterative solution of the eigenvalue problem:
     a serial algorithm will be used


     G-vector sticks info
     --------------------
     sticks:   dense  smooth     PW     G-vecs:    dense   smooth      PW
     Sum         151     151     61                 1243     1243     307

     Using Slab Decomposition



     bravais-lattice index     =            2
     lattice parameter (alat)  =       7.3700  a.u.
     unit-cell volume          =     100.0789 (a.u.)^3
     number of atoms/cell      =            1
     number of atomic types    =            1
     number of electrons       =        10.00
     number of Kohn-Sham states=           10
     kinetic-energy cutoff     =      20.0000  Ry
     charge density cutoff     =      80.0000  Ry
     scf convergence threshold =      1.0E-08
     mixing beta               =       0.7000
     number of iterations used =            8  plain     mixing
     Exchange-correlation=  SLA  PZ   NOGX NOGC
                           (   1   1   0   0   0   0   0)
     Non magnetic calculation with spin-orbit


     celldm(1)=   7.370000  celldm(2)=   0.000000  celldm(3)=   0.000000
     celldm(4)=   0.000000  celldm(5)=   0.000000  celldm(6)=   0.000000

     crystal axes: (cart. coord. in units of alat)
               a(1) = (  -0.500000   0.000000   0.500000 )  
               a(2) = (   0.000000   0.500000   0.500000 )  
               a(3) = (  -0.500000   0.500000   0.000000 )  

     reciprocal axes: (cart. coord. in units 2 pi/alat)
               b(1) = ( -1.000000 -1.000000  1.000000 )  
               b(2) = (  1.000000  1.000000  1.000000 )  
               b(3) = ( -1.000000  1.000000 -1.000000 )  


     PseudoPot. # 1 for Pt read from file:
     /home/dashlander/Desktop/Sem7/CPD/Assignment_3/pseudo/Pt.rel-pz-n-rrkjus.UPF
     MD5 check sum: 4baafe8ec1942611396c7a5466f52249
     Pseudo is Ultrasoft + core correction, Zval = 10.0
     Generated by new atomic code, or converted to UPF format
     Using radial grid of 1277 points,  6 beta functions with: 
                l(1) =   2
                l(2) =   2
                l(3) =   2
                l(4) =   2
                l(5) =   1
                l(6) =   1
     Q(r) pseudized with 0 coefficients 


     atomic species   valence    mass     pseudopotential
     Pt               10.00   195.08400     Pt( 1.00)

     48 Sym. Ops., with inversion, found



   Cartesian axes

     site n.     atom                  positions (alat units)
         1        Pt     tau(   1) = (   0.0000000   0.0000000   0.0000000  )

     number of k points=    19
                       cart. coord. in units 2pi/alat
        k(    1) = (  -0.1000000   0.1000000   0.1000000), wk =   0.0160000
        k(    2) = (  -0.3000000   0.3000000  -0.1000000), wk =   0.0480000
        k(    3) = (   0.5000000  -0.5000000   0.7000000), wk =   0.0480000
        k(    4) = (   0.3000000  -0.3000000   0.5000000), wk =   0.0480000
        k(    5) = (   0.1000000  -0.1000000   0.3000000), wk =   0.0480000
        k(    6) = (  -0.1000000   0.5000000   0.1000000), wk =   0.0480000
        k(    7) = (   0.7000000  -0.3000000   0.9000000), wk =   0.0960000
        k(    8) = (   0.5000000  -0.1000000   0.7000000), wk =   0.0960000
        k(    9) = (   0.3000000   0.1000000   0.5000000), wk =   0.0960000
        k(   10) = (  -0.1000000  -1.1000000   0.1000000), wk =   0.0480000
        k(   11) = (  -0.3000000  -0.9000000  -0.1000000), wk =   0.0960000
        k(   12) = (  -0.5000000  -0.7000000  -0.3000000), wk =   0.0480000
        k(   13) = (  -0.1000000  -0.7000000   0.1000000), wk =   0.0480000
        k(   14) = (  -0.3000000   0.3000000   0.3000000), wk =   0.0160000
        k(   15) = (   0.5000000  -0.5000000   1.1000000), wk =   0.0480000
        k(   16) = (   0.3000000  -0.3000000   0.9000000), wk =   0.0480000
        k(   17) = (  -0.3000000  -1.3000000   0.3000000), wk =   0.0480000
        k(   18) = (  -0.5000000  -1.1000000   0.1000000), wk =   0.0480000
        k(   19) = (   0.5000000  -0.5000000  -0.5000000), wk =   0.0080000

     Dense  grid:     1243 G-vectors     FFT dimensions: (  15,  15,  15)

     Estimated max dynamical RAM per process >      11.26 MB

     Check: negative core charge=   -0.000029

     Initial potential from superposition of free atoms

     starting charge       9.9999, renormalised to      10.0000

     negative rho (up, down):  1.043E-04 0.000E+00
     Starting wfcs are   12 randomized atomic wfcs

     total cpu time spent up to now is        0.4 secs

     Self-consistent Calculation

     iteration #  1     ecut=    20.00 Ry     beta= 0.70
     Davidson diagonalization with overlap
     ethr =  1.00E-02,  avg # of iterations =  2.2

     Threshold (ethr) on eigenvalues was too large:
     Diagonalizing with lowered threshold

     Davidson diagonalization with overlap
     c_bands:  1 eigenvalues not converged
     ethr =  1.22E-05,  avg # of iterations =  8.0

     negative rho (up, down):  1.948E-04 0.000E+00

     total cpu time spent up to now is        0.7 secs

     total energy              =     -69.45375087 Ry
     estimated scf accuracy    <       0.00346029 Ry

     iteration #  2     ecut=    20.00 Ry     beta= 0.70
     Davidson diagonalization with overlap
     ethr =  3.46E-05,  avg # of iterations =  2.1

     negative rho (up, down):  2.194E-04 0.000E+00

     total cpu time spent up to now is        0.8 secs

     total energy              =     -69.45464561 Ry
     estimated scf accuracy    <       0.00039756 Ry

     iteration #  3     ecut=    20.00 Ry     beta= 0.70
     Davidson diagonalization with overlap
     ethr =  3.98E-06,  avg # of iterations =  2.4

     negative rho (up, down):  2.371E-04 0.000E+00

     total cpu time spent up to now is        0.9 secs

     total energy              =     -69.45543642 Ry
     estimated scf accuracy    <       0.00000937 Ry

     iteration #  4     ecut=    20.00 Ry     beta= 0.70
     Davidson diagonalization with overlap
     ethr =  9.37E-08,  avg # of iterations =  6.9

     negative rho (up, down):  2.375E-04 0.000E+00

     total cpu time spent up to now is        1.1 secs

     total energy              =     -69.45616551 Ry
     estimated scf accuracy    <       0.00000886 Ry

     iteration #  5     ecut=    20.00 Ry     beta= 0.70
     Davidson diagonalization with overlap
     ethr =  8.86E-08,  avg # of iterations =  3.1

     negative rho (up, down):  2.382E-04 0.000E+00

     total cpu time spent up to now is        1.2 secs

     total energy              =     -69.45616862 Ry
     estimated scf accuracy    <       0.00000268 Ry

     iteration #  6     ecut=    20.00 Ry     beta= 0.70
     Davidson diagonalization with overlap
     ethr =  2.68E-08,  avg # of iterations =  2.6

     negative rho (up, down):  2.382E-04 0.000E+00

     total cpu time spent up to now is        1.4 secs

     total energy              =     -69.45616905 Ry
     estimated scf accuracy    <       0.00000008 Ry

     iteration #  7     ecut=    20.00 Ry     beta= 0.70
     Davidson diagonalization with overlap
     ethr =  7.55E-10,  avg # of iterations =  6.4

     negative rho (up, down):  2.382E-04 0.000E+00

     total cpu time spent up to now is        1.5 secs

     total energy              =     -69.45616918 Ry
     estimated scf accuracy    <       0.00000002 Ry

     iteration #  8     ecut=    20.00 Ry     beta= 0.70
     Davidson diagonalization with overlap
     ethr =  1.85E-10,  avg # of iterations =  3.2

     negative rho (up, down):  2.382E-04 0.000E+00

     total cpu time spent up to now is        1.6 secs

     End of self-consistent calculation

          k =-0.1000 0.1000 0.1000 (   153 PWs)   bands (ev):

     7.9663   7.9663  13.7282  13.7282  13.8635  13.8635  14.8470  14.8470
    16.4613  16.4613

          k =-0.3000 0.3000-0.1000 (   153 PWs)   bands (ev):

     9.7758   9.7758  13.3728  13.3728  14.0736  14.0736  15.2822  15.2822
    16.0474  16.0474

          k = 0.5000-0.5000 0.7000 (   152 PWs)   bands (ev):

    10.8576  10.8576  13.5870  13.5870  14.6570  14.6570  15.6089  15.6089
    17.7529  17.7529

          k = 0.3000-0.3000 0.5000 (   148 PWs)   bands (ev):

    10.7777  10.7777  13.7016  13.7016  14.3733  14.3733  14.9739  14.9739
    17.7465  17.7465

          k = 0.1000-0.1000 0.3000 (   155 PWs)   bands (ev):

     8.9592   8.9592  13.3495  13.3495  14.1570  14.1570  15.2237  15.2237
    16.0439  16.0439

          k =-0.1000 0.5000 0.1000 (   156 PWs)   bands (ev):

    10.5239  10.5239  12.6109  12.6109  14.2821  14.2821  15.8487  15.8487
    16.5350  16.5350

          k = 0.7000-0.3000 0.9000 (   150 PWs)   bands (ev):

    11.7882  11.7882  12.5640  12.5640  13.9247  13.9247  16.3467  16.3467
    17.7882  17.7882

          k = 0.5000-0.1000 0.7000 (   151 PWs)   bands (ev):

    12.3128  12.3128  12.8828  12.8828  13.7630  13.7630  15.8554  15.8554
    17.6250  17.6250

          k = 0.3000 0.1000 0.5000 (   148 PWs)   bands (ev):

    11.0613  11.0613  13.0783  13.0783  13.8328  13.8328  15.4956  15.4956
    16.6561  16.6561

          k =-0.1000-1.1000 0.1000 (   150 PWs)   bands (ev):

    10.9798  10.9798  11.4856  11.4856  16.8139  16.8139  17.6687  17.6687
    18.6735  18.6735

          k =-0.3000-0.9000-0.1000 (   151 PWs)   bands (ev):

    11.6118  11.6118  12.1616  12.1616  14.9369  14.9369  16.8992  16.8992
    18.4512  18.4512

          k =-0.5000-0.7000-0.3000 (   152 PWs)   bands (ev):

    11.4124  11.4124  13.2524  13.2524  14.6661  14.6661  15.3159  15.3159
    18.0503  18.0503

          k =-0.1000-0.7000 0.1000 (   147 PWs)   bands (ev):

    11.2169  11.2169  11.9038  11.9038  15.1938  15.1938  16.8561  16.8561
    17.9087  17.9087

          k =-0.3000 0.3000 0.3000 (   153 PWs)   bands (ev):

    10.1339  10.1339  13.8687  13.8687  14.0575  14.0575  15.0223  15.0223
    16.8289  16.8289

          k = 0.5000-0.5000 1.1000 (   150 PWs)   bands (ev):

    11.7168  11.7168  13.3898  13.3898  13.8476  13.8476  15.2576  15.2576
    16.8211  16.8211

          k = 0.3000-0.3000 0.9000 (   152 PWs)   bands (ev):

    11.8234  11.8234  12.7576  12.7576  14.4568  14.4568  16.2049  16.2049
    17.9720  17.9720

          k =-0.3000-1.3000 0.3000 (   153 PWs)   bands (ev):

    11.4916  11.4916  13.1568  13.1568  14.2709  14.2709  15.4632  15.4632
    18.2932  18.2932

          k =-0.5000-1.1000 0.1000 (   152 PWs)   bands (ev):

    12.3003  12.3003  12.9781  12.9781  13.5255  13.5255  16.1950  16.1950
    18.3763  18.3763

          k = 0.5000-0.5000-0.5000 (   156 PWs)   bands (ev):

    10.5317  10.5317  13.5781  13.5781  14.5798  14.5798  17.3253  17.3253
    17.8850  17.8850

     highest occupied level (ev):    18.6735

!    total energy              =     -69.45616918 Ry
     estimated scf accuracy    <          8.0E-11 Ry

     The total energy is the sum of the following terms:
     one-electron contribution =      17.65093410 Ry
     hartree contribution      =       3.67762749 Ry
     xc contribution           =     -28.57493328 Ry
     ewald contribution        =     -62.20979750 Ry

     convergence has been achieved in   8 iterations

     negative rho (up, down):  2.382E-04 0.000E+00

     Forces acting on atoms (cartesian axes, Ry/au):

     atom    1 type  1   force =     0.00000000    0.00000000    0.00000000

     Total force =     0.000000     Total SCF correction =     0.000000


     Computing stress (Cartesian axis) and pressure


     negative rho (up, down):  2.382E-04 0.000E+00
          total   stress  (Ry/bohr**3)                   (kbar)     P=      122.44
   0.00083235   0.00000000  -0.00000000          122.44        0.00       -0.00
   0.00000000   0.00083235  -0.00000000            0.00      122.44       -0.00
  -0.00000000  -0.00000000   0.00083235           -0.00       -0.00      122.44


     Writing all to output data dir ./platinum.save/ :
     XML data file, charge density, pseudopotentials, collected wavefunctions

     init_run     :      0.21s CPU      0.25s WALL (       1 calls)
     electrons    :      1.10s CPU      1.29s WALL (       1 calls)
     forces       :      0.02s CPU      0.02s WALL (       1 calls)
     stress       :      0.12s CPU      0.12s WALL (       1 calls)

     Called by init_run:
     wfcinit      :      0.03s CPU      0.05s WALL (       1 calls)
     potinit      :      0.01s CPU      0.01s WALL (       1 calls)
     hinit0       :      0.16s CPU      0.18s WALL (       1 calls)

     Called by electrons:
     c_bands      :      0.81s CPU      0.98s WALL (       9 calls)
     sum_band     :      0.20s CPU      0.21s WALL (       9 calls)
     v_of_rho     :      0.00s CPU      0.00s WALL (       9 calls)
     newd         :      0.10s CPU      0.10s WALL (       9 calls)
     mix_rho      :      0.00s CPU      0.00s WALL (       9 calls)

     Called by c_bands:
     init_us_2    :      0.01s CPU      0.01s WALL (     399 calls)
     cegterg      :      0.76s CPU      0.92s WALL (     171 calls)

     Called by *egterg:
     cdiaghg      :      0.05s CPU      0.06s WALL (     854 calls)
     h_psi        :      0.45s CPU      0.56s WALL (     892 calls)
     s_psi        :      0.07s CPU      0.08s WALL (     892 calls)
     g_psi        :      0.01s CPU      0.01s WALL (     702 calls)

     Called by h_psi:
     h_psi:calbec :      0.05s CPU      0.07s WALL (     892 calls)
     vloc_psi     :      0.31s CPU      0.39s WALL (     892 calls)
     add_vuspsi   :      0.07s CPU      0.08s WALL (     892 calls)

     General routines
     calbec       :      0.08s CPU      0.09s WALL (    1158 calls)
     fft          :      0.02s CPU      0.03s WALL (      99 calls)
     ffts         :      0.00s CPU      0.00s WALL (      36 calls)
     fftw         :      0.24s CPU      0.30s WALL (   29284 calls)

     Parallel routines

     PWSCF        :      1.54s CPU      1.78s WALL


   This run was terminated on:  13:51:37   4Nov2024            

=------------------------------------------------------------------------------=
   JOB DONE.
=------------------------------------------------------------------------------=
