
     Program PWSCF v.7.3.1 starts on  4Nov2024 at 21:59:56 

     This program is part of the open-source Quantum ESPRESSO suite
     for quantum simulation of materials; please cite
         "P. Giannozzi et al., J. Phys.:Condens. Matter 21 395502 (2009);
         "P. Giannozzi et al., J. Phys.:Condens. Matter 29 465901 (2017);
         "P. Giannozzi et al., J. Chem. Phys. 152 154105 (2020);
          URL http://www.quantum-espresso.org", 
     in publications or presentations arising from this work. More details at
     http://www.quantum-espresso.org/quote

     Parallel version (MPI), running on     1 processors

     MPI processes distributed on     1 nodes
     11855 MiB available memory on the printing compute node when the environment starts

     Waiting for input...
     Reading input from standard input

     Current dimensions of program PWSCF are:
     Max number of different atomic species (ntypx) = 10
     Max number of k-points (npk) =  40000
     Max angular momentum in pseudopotentials (lmaxx) =  4

     Subspace diagonalization in iterative solution of the eigenvalue problem:
     a serial algorithm will be used


     G-vector sticks info
     --------------------
     sticks:   dense  smooth     PW     G-vecs:    dense   smooth      PW
     Sum         139     139     55                 1067     1067     259

     Using Slab Decomposition



     bravais-lattice index     =            2
     lattice parameter (alat)  =       7.0600  a.u.
     unit-cell volume          =      87.9740 (a.u.)^3
     number of atoms/cell      =            1
     number of atomic types    =            1
     number of electrons       =        10.00
     number of Kohn-Sham states=           10
     kinetic-energy cutoff     =      20.0000  Ry
     charge density cutoff     =      80.0000  Ry
     scf convergence threshold =      1.0E-08
     mixing beta               =       0.7000
     number of iterations used =            8  plain     mixing
     Exchange-correlation=  SLA  PZ   NOGX NOGC
                           (   1   1   0   0   0   0   0)
     Non magnetic calculation with spin-orbit


     celldm(1)=   7.060000  celldm(2)=   0.000000  celldm(3)=   0.000000
     celldm(4)=   0.000000  celldm(5)=   0.000000  celldm(6)=   0.000000

     crystal axes: (cart. coord. in units of alat)
               a(1) = (  -0.500000   0.000000   0.500000 )  
               a(2) = (   0.000000   0.500000   0.500000 )  
               a(3) = (  -0.500000   0.500000   0.000000 )  

     reciprocal axes: (cart. coord. in units 2 pi/alat)
               b(1) = ( -1.000000 -1.000000  1.000000 )  
               b(2) = (  1.000000  1.000000  1.000000 )  
               b(3) = ( -1.000000  1.000000 -1.000000 )  


     PseudoPot. # 1 for Pt read from file:
     /home/dashlander/Desktop/Sem7/CPD/Assignment_3/pseudo/Pt.rel-pz-n-rrkjus.UPF
     MD5 check sum: 4baafe8ec1942611396c7a5466f52249
     Pseudo is Ultrasoft + core correction, Zval = 10.0
     Generated by new atomic code, or converted to UPF format
     Using radial grid of 1277 points,  6 beta functions with: 
                l(1) =   2
                l(2) =   2
                l(3) =   2
                l(4) =   2
                l(5) =   1
                l(6) =   1
     Q(r) pseudized with 0 coefficients 


     atomic species   valence    mass     pseudopotential
     Pt               10.00   195.08400     Pt( 1.00)

     48 Sym. Ops., with inversion, found



   Cartesian axes

     site n.     atom                  positions (alat units)
         1        Pt     tau(   1) = (   0.0000000   0.0000000   0.0000000  )

     number of k points=    35
                       cart. coord. in units 2pi/alat
        k(    1) = (   0.0000000   0.0000000   0.0000000), wk =   0.0013717
        k(    2) = (  -0.1111111   0.1111111  -0.1111111), wk =   0.0109739
        k(    3) = (  -0.2222222   0.2222222  -0.2222222), wk =   0.0109739
        k(    4) = (  -0.3333333   0.3333333  -0.3333333), wk =   0.0109739
        k(    5) = (  -0.4444444   0.4444444  -0.4444444), wk =   0.0109739
        k(    6) = (   0.0000000   0.2222222   0.0000000), wk =   0.0082305
        k(    7) = (  -0.1111111   0.3333333  -0.1111111), wk =   0.0329218
        k(    8) = (  -0.2222222   0.4444444  -0.2222222), wk =   0.0329218
        k(    9) = (  -0.3333333   0.5555556  -0.3333333), wk =   0.0329218
        k(   10) = (   0.5555556  -0.3333333   0.5555556), wk =   0.0329218
        k(   11) = (   0.4444444  -0.2222222   0.4444444), wk =   0.0329218
        k(   12) = (   0.3333333  -0.1111111   0.3333333), wk =   0.0329218
        k(   13) = (   0.2222222  -0.0000000   0.2222222), wk =   0.0164609
        k(   14) = (   0.0000000   0.4444444   0.0000000), wk =   0.0082305
        k(   15) = (  -0.1111111   0.5555556  -0.1111111), wk =   0.0329218
        k(   16) = (  -0.2222222   0.6666667  -0.2222222), wk =   0.0329218
        k(   17) = (   0.6666667  -0.2222222   0.6666667), wk =   0.0329218
        k(   18) = (   0.5555556  -0.1111111   0.5555556), wk =   0.0329218
        k(   19) = (   0.4444444   0.0000000   0.4444444), wk =   0.0164609
        k(   20) = (   0.0000000   0.6666667   0.0000000), wk =   0.0082305
        k(   21) = (  -0.1111111   0.7777778  -0.1111111), wk =   0.0329218
        k(   22) = (   0.7777778  -0.1111111   0.7777778), wk =   0.0329218
        k(   23) = (   0.6666667  -0.0000000   0.6666667), wk =   0.0164609
        k(   24) = (   0.0000000   0.8888889   0.0000000), wk =   0.0082305
        k(   25) = (   0.8888889   0.0000000   0.8888889), wk =   0.0164609
        k(   26) = (  -0.2222222   0.4444444   0.0000000), wk =   0.0329218
        k(   27) = (  -0.3333333   0.5555556  -0.1111111), wk =   0.0658436
        k(   28) = (   0.5555556  -0.3333333   0.7777778), wk =   0.0658436
        k(   29) = (  -0.2222222   0.6666667   0.0000000), wk =   0.0329218
        k(   30) = (   0.6666667  -0.2222222   0.8888889), wk =   0.0658436
        k(   31) = (   0.5555556  -0.1111111   0.7777778), wk =   0.0658436
        k(   32) = (   0.4444444   0.0000000   0.6666667), wk =   0.0329218
        k(   33) = (   0.7777778  -0.1111111   1.0000000), wk =   0.0329218
        k(   34) = (   0.6666667  -0.0000000   0.8888889), wk =   0.0329218
        k(   35) = (   0.5555556  -0.1111111   1.0000000), wk =   0.0329218

     Dense  grid:     1067 G-vectors     FFT dimensions: (  15,  15,  15)

     Estimated max dynamical RAM per process >      10.52 MB

     Check: negative core charge=   -0.000029

     Initial potential from superposition of free atoms

     starting charge       9.9999, renormalised to      10.0000

     negative rho (up, down):  8.652E-05 0.000E+00
     Starting wfcs are   12 randomized atomic wfcs

     total cpu time spent up to now is        0.4 secs

     Self-consistent Calculation

     iteration #  1     ecut=    20.00 Ry     beta= 0.70
     Davidson diagonalization with overlap
     ethr =  1.00E-02,  avg # of iterations =  2.3

     Threshold (ethr) on eigenvalues was too large:
     Diagonalizing with lowered threshold

     Davidson diagonalization with overlap
     ethr =  1.20E-05,  avg # of iterations =  7.7

     negative rho (up, down):  1.900E-04 0.000E+00

     total cpu time spent up to now is        0.9 secs

     total energy              =     -69.42169294 Ry
     estimated scf accuracy    <       0.00438785 Ry

     iteration #  2     ecut=    20.00 Ry     beta= 0.70
     Davidson diagonalization with overlap
     ethr =  4.39E-05,  avg # of iterations =  2.1

     negative rho (up, down):  2.191E-04 0.000E+00

     total cpu time spent up to now is        1.1 secs

     total energy              =     -69.42277353 Ry
     estimated scf accuracy    <       0.00034621 Ry

     iteration #  3     ecut=    20.00 Ry     beta= 0.70
     Davidson diagonalization with overlap
     ethr =  3.46E-06,  avg # of iterations =  2.1

     negative rho (up, down):  2.385E-04 0.000E+00

     total cpu time spent up to now is        1.3 secs

     total energy              =     -69.42282722 Ry
     estimated scf accuracy    <       0.00001191 Ry

     iteration #  4     ecut=    20.00 Ry     beta= 0.70
     Davidson diagonalization with overlap
     ethr =  1.19E-07,  avg # of iterations =  6.1

     negative rho (up, down):  2.388E-04 0.000E+00

     total cpu time spent up to now is        1.6 secs

     total energy              =     -69.42284055 Ry
     estimated scf accuracy    <       0.00000142 Ry

     iteration #  5     ecut=    20.00 Ry     beta= 0.70
     Davidson diagonalization with overlap
     ethr =  1.42E-08,  avg # of iterations =  3.5

     negative rho (up, down):  2.396E-04 0.000E+00

     total cpu time spent up to now is        1.8 secs

     total energy              =     -69.42284085 Ry
     estimated scf accuracy    <       0.00000008 Ry

     iteration #  6     ecut=    20.00 Ry     beta= 0.70
     Davidson diagonalization with overlap
     ethr =  7.66E-10,  avg # of iterations =  4.8

     negative rho (up, down):  2.397E-04 0.000E+00

     total cpu time spent up to now is        2.0 secs

     End of self-consistent calculation

          k = 0.0000 0.0000 0.0000 (   137 PWs)   bands (ev):

     9.6205   9.6205  16.5078  16.5078  16.5078  16.5078  17.4733  17.4733
    19.7981  19.7981

          k =-0.1111 0.1111-0.1111 (   135 PWs)   bands (ev):

    10.1778  10.1778  16.4168  16.4168  16.6560  16.6560  17.6176  17.6176
    19.5962  19.5962

          k =-0.2222 0.2222-0.2222 (   138 PWs)   bands (ev):

    11.5527  11.5527  16.2612  16.2612  16.7782  16.7782  17.9562  17.9562
    19.5245  19.5245

          k =-0.3333 0.3333-0.3333 (   138 PWs)   bands (ev):

    12.5642  12.5642  16.5531  16.5531  17.3522  17.3522  17.6612  17.6612
    20.4926  20.4926

          k =-0.4444 0.4444-0.4444 (   135 PWs)   bands (ev):

    12.6686  12.6686  16.3037  16.3037  17.3050  17.3050  19.7870  19.7870
    21.4176  21.4176

          k = 0.0000 0.2222 0.0000 (   137 PWs)   bands (ev):

    10.3660  10.3660  16.1961  16.1961  16.8588  16.8588  17.7344  17.7344
    19.2716  19.2716

          k =-0.1111 0.3333-0.1111 (   138 PWs)   bands (ev):

    11.5108  11.5108  15.8110  15.8110  17.0444  17.0444  18.1733  18.1733
    19.0772  19.0772

          k =-0.2222 0.4444-0.2222 (   140 PWs)   bands (ev):

    12.8061  12.8061  16.0626  16.0626  16.6965  16.6965  17.9886  17.9886
    20.2892  20.2892

          k =-0.3333 0.5556-0.3333 (   132 PWs)   bands (ev):

    13.1130  13.1130  16.2531  16.2531  17.3902  17.3902  17.9713  17.9713
    21.7298  21.7298

          k = 0.5556-0.3333 0.5556 (   129 PWs)   bands (ev):

    13.1155  13.1155  16.1569  16.1569  17.3514  17.3514  18.7928  18.7928
    21.6285  21.6285

          k = 0.4444-0.2222 0.4444 (   136 PWs)   bands (ev):

    13.1451  13.1451  16.3898  16.3898  17.3298  17.3298  17.6483  17.6483
    20.5000  20.5000

          k = 0.3333-0.1111 0.3333 (   140 PWs)   bands (ev):

    12.4883  12.4883  15.9659  15.9659  16.8471  16.8471  18.0773  18.0773
    19.2234  19.2234

          k = 0.2222-0.0000 0.2222 (   137 PWs)   bands (ev):

    11.0415  11.0415  16.1033  16.1033  16.8872  16.8872  17.9468  17.9468
    19.1288  19.1288

          k = 0.0000 0.4444 0.0000 (   133 PWs)   bands (ev):

    12.2202  12.2202  15.1635  15.1635  17.4011  17.4011  18.8653  18.8653
    18.8936  18.8936

          k =-0.1111 0.5556-0.1111 (   136 PWs)   bands (ev):

    13.2525  13.2525  14.7929  14.7929  17.1135  17.1135  19.0975  19.0975
    20.3158  20.3158

          k =-0.2222 0.6667-0.2222 (   134 PWs)   bands (ev):

    13.7428  13.7428  15.2483  15.2483  16.8287  16.8287  18.8065  18.8065
    21.8898  21.8898

          k = 0.6667-0.2222 0.6667 (   127 PWs)   bands (ev):

    13.9659  13.9659  15.5411  15.5411  17.1817  17.1817  18.4915  18.4915
    21.7190  21.7190

          k = 0.5556-0.1111 0.5556 (   131 PWs)   bands (ev):

    14.3058  14.3058  15.7889  15.7889  16.7118  16.7118  18.2962  18.2962
    20.5326  20.5326

          k = 0.4444 0.0000 0.4444 (   135 PWs)   bands (ev):

    13.9732  13.9732  15.6458  15.6458  16.4586  16.4586  18.3574  18.3574
    19.2859  19.2859

          k = 0.0000 0.6667 0.0000 (   129 PWs)   bands (ev):

    13.2297  13.2297  14.0820  14.0820  18.6409  18.6409  20.3961  20.3961
    20.5405  20.5405

          k =-0.1111 0.7778-0.1111 (   133 PWs)   bands (ev):

    13.3230  13.3230  13.9495  13.9495  18.8307  18.8307  20.5243  20.5243
    21.9705  21.9705

          k = 0.7778-0.1111 0.7778 (   131 PWs)   bands (ev):

    13.6566  13.6566  14.5489  14.5489  18.0690  18.0690  20.0070  20.0070
    21.9709  21.9709

          k = 0.6667-0.0000 0.6667 (   136 PWs)   bands (ev):

    14.2821  14.2821  15.4137  15.4137  16.9235  16.9235  19.2725  19.2725
    21.0889  21.0889

          k = 0.0000 0.8889 0.0000 (   129 PWs)   bands (ev):

    12.8440  12.8440  13.4440  13.4440  21.4643  21.4643  21.5662  21.5662
    22.3892  22.3892

          k = 0.8889 0.0000 0.8889 (   130 PWs)   bands (ev):

    13.0231  13.0231  13.6314  13.6314  20.2079  20.2079  21.2520  21.2520
    22.4395  22.4395

          k =-0.2222 0.4444 0.0000 (   137 PWs)   bands (ev):

    12.7558  12.7558  15.3683  15.3683  16.8769  16.8769  18.7398  18.7398
    19.0616  19.0616

          k =-0.3333 0.5556-0.1111 (   134 PWs)   bands (ev):

    13.8227  13.8227  15.7091  15.7091  16.2681  16.2681  18.5234  18.5234
    20.3188  20.3188

          k = 0.5556-0.3333 0.7778 (   134 PWs)   bands (ev):

    13.8955  13.8955  15.7073  15.7073  17.1250  17.1250  18.2511  18.2511
    21.4611  21.4611

          k =-0.2222 0.6667 0.0000 (   132 PWs)   bands (ev):

    13.8374  13.8374  14.4857  14.4857  17.0889  17.0889  20.1865  20.1865
    20.5243  20.5243

          k = 0.6667-0.2222 0.8889 (   129 PWs)   bands (ev):

    14.1593  14.1593  14.9111  14.9111  16.8127  16.8127  19.6685  19.6685
    21.6554  21.6554

          k = 0.5556-0.1111 0.7778 (   131 PWs)   bands (ev):

    14.6082  14.6082  15.2285  15.2285  16.5742  16.5742  19.1150  19.1150
    21.5294  21.5294

          k = 0.4444 0.0000 0.6667 (   130 PWs)   bands (ev):

    15.1084  15.1084  15.4049  15.4049  15.6344  15.6344  19.1399  19.1399
    20.5884  20.5884

          k = 0.7778-0.1111 1.0000 (   127 PWs)   bands (ev):

    13.4062  13.4062  13.9448  13.9448  18.8100  18.8100  20.8893  20.8893
    22.2260  22.2260

          k = 0.6667-0.0000 0.8889 (   131 PWs)   bands (ev):

    13.9039  13.9039  14.6422  14.6422  17.6626  17.6626  19.9433  19.9433
    22.1982  22.1982

          k = 0.5556-0.1111 1.0000 (   129 PWs)   bands (ev):

    14.4728  14.4728  15.3914  15.3914  16.2521  16.2521  19.4279  19.4279
    22.1720  22.1720

     highest occupied level (ev):    22.4395

!    total energy              =     -69.42284091 Ry
     estimated scf accuracy    <          2.9E-09 Ry

     The total energy is the sum of the following terms:
     one-electron contribution =      21.26631050 Ry
     hartree contribution      =       3.01081918 Ry
     xc contribution           =     -28.75858141 Ry
     ewald contribution        =     -64.94138918 Ry

     convergence has been achieved in   6 iterations

     negative rho (up, down):  2.397E-04 0.000E+00

     Forces acting on atoms (cartesian axes, Ry/au):

     atom    1 type  1   force =     0.00000000    0.00000000    0.00000000

     Total force =     0.000000     Total SCF correction =     0.000000


     Computing stress (Cartesian axis) and pressure


     negative rho (up, down):  2.397E-04 0.000E+00
          total   stress  (Ry/bohr**3)                   (kbar)     P=      735.58
   0.00500035   0.00000000   0.00000000          735.58        0.00        0.00
   0.00000000   0.00500035  -0.00000000            0.00      735.58       -0.00
   0.00000000  -0.00000000   0.00500035            0.00       -0.00      735.58


     Writing all to output data dir ./platinum.save/ :
     XML data file, charge density, pseudopotentials, collected wavefunctions

     init_run     :      0.23s CPU      0.27s WALL (       1 calls)
     electrons    :      1.42s CPU      1.63s WALL (       1 calls)
     forces       :      0.03s CPU      0.03s WALL (       1 calls)
     stress       :      0.14s CPU      0.14s WALL (       1 calls)

     Called by init_run:
     wfcinit      :      0.05s CPU      0.07s WALL (       1 calls)
     potinit      :      0.01s CPU      0.01s WALL (       1 calls)
     hinit0       :      0.16s CPU      0.17s WALL (       1 calls)

     Called by electrons:
     c_bands      :      1.12s CPU      1.31s WALL (       7 calls)
     sum_band     :      0.23s CPU      0.25s WALL (       7 calls)
     v_of_rho     :      0.00s CPU      0.00s WALL (       7 calls)
     newd         :      0.07s CPU      0.07s WALL (       7 calls)
     mix_rho      :      0.00s CPU      0.00s WALL (       7 calls)

     Called by c_bands:
     init_us_2    :      0.02s CPU      0.02s WALL (     595 calls)
     cegterg      :      1.06s CPU      1.24s WALL (     245 calls)

     Called by *egterg:
     cdiaghg      :      0.08s CPU      0.09s WALL (    1213 calls)
     h_psi        :      0.64s CPU      0.76s WALL (    1283 calls)
     s_psi        :      0.09s CPU      0.11s WALL (    1283 calls)
     g_psi        :      0.01s CPU      0.01s WALL (    1003 calls)

     Called by h_psi:
     h_psi:calbec :      0.07s CPU      0.09s WALL (    1283 calls)
     vloc_psi     :      0.46s CPU      0.55s WALL (    1283 calls)
     add_vuspsi   :      0.09s CPU      0.11s WALL (    1283 calls)

     General routines
     calbec       :      0.10s CPU      0.12s WALL (    1703 calls)
     fft          :      0.02s CPU      0.03s WALL (      79 calls)
     ffts         :      0.00s CPU      0.00s WALL (      28 calls)
     fftw         :      0.34s CPU      0.41s WALL (   42164 calls)

     Parallel routines

     PWSCF        :      1.94s CPU      2.20s WALL


   This run was terminated on:  21:59:58   4Nov2024            

=------------------------------------------------------------------------------=
   JOB DONE.
=------------------------------------------------------------------------------=
