
     Program PWSCF v.7.3.1 starts on  4Nov2024 at 13:52:18 

     This program is part of the open-source Quantum ESPRESSO suite
     for quantum simulation of materials; please cite
         "P. Giannozzi et al., J. Phys.:Condens. Matter 21 395502 (2009);
         "P. Giannozzi et al., J. Phys.:Condens. Matter 29 465901 (2017);
         "P. Giannozzi et al., J. Chem. Phys. 152 154105 (2020);
          URL http://www.quantum-espresso.org", 
     in publications or presentations arising from this work. More details at
     http://www.quantum-espresso.org/quote

     Parallel version (MPI), running on     1 processors

     MPI processes distributed on     1 nodes
     14397 MiB available memory on the printing compute node when the environment starts

     Waiting for input...
     Reading input from standard input

     Current dimensions of program PWSCF are:
     Max number of different atomic species (ntypx) = 10
     Max number of k-points (npk) =  40000
     Max angular momentum in pseudopotentials (lmaxx) =  4

     Subspace diagonalization in iterative solution of the eigenvalue problem:
     a serial algorithm will be used


     G-vector sticks info
     --------------------
     sticks:   dense  smooth     PW     G-vecs:    dense   smooth      PW
     Sum         151     151     61                 1243     1243     331

     Using Slab Decomposition



     bravais-lattice index     =            2
     lattice parameter (alat)  =       7.3700  a.u.
     unit-cell volume          =     100.0789 (a.u.)^3
     number of atoms/cell      =            1
     number of atomic types    =            1
     number of electrons       =        10.00
     number of Kohn-Sham states=           10
     kinetic-energy cutoff     =      20.0000  Ry
     charge density cutoff     =      80.0000  Ry
     scf convergence threshold =      1.0E-08
     mixing beta               =       0.7000
     number of iterations used =            8  plain     mixing
     Exchange-correlation=  SLA  PZ   NOGX NOGC
                           (   1   1   0   0   0   0   0)
     Non magnetic calculation with spin-orbit


     celldm(1)=   7.370000  celldm(2)=   0.000000  celldm(3)=   0.000000
     celldm(4)=   0.000000  celldm(5)=   0.000000  celldm(6)=   0.000000

     crystal axes: (cart. coord. in units of alat)
               a(1) = (  -0.500000   0.000000   0.500000 )  
               a(2) = (   0.000000   0.500000   0.500000 )  
               a(3) = (  -0.500000   0.500000   0.000000 )  

     reciprocal axes: (cart. coord. in units 2 pi/alat)
               b(1) = ( -1.000000 -1.000000  1.000000 )  
               b(2) = (  1.000000  1.000000  1.000000 )  
               b(3) = ( -1.000000  1.000000 -1.000000 )  


     PseudoPot. # 1 for Pt read from file:
     /home/dashlander/Desktop/Sem7/CPD/Assignment_3/pseudo/Pt.rel-pz-n-rrkjus.UPF
     MD5 check sum: 4baafe8ec1942611396c7a5466f52249
     Pseudo is Ultrasoft + core correction, Zval = 10.0
     Generated by new atomic code, or converted to UPF format
     Using radial grid of 1277 points,  6 beta functions with: 
                l(1) =   2
                l(2) =   2
                l(3) =   2
                l(4) =   2
                l(5) =   1
                l(6) =   1
     Q(r) pseudized with 0 coefficients 


     atomic species   valence    mass     pseudopotential
     Pt               10.00   195.08400     Pt( 1.00)

     48 Sym. Ops., with inversion, found



   Cartesian axes

     site n.     atom                  positions (alat units)
         1        Pt     tau(   1) = (   0.0000000   0.0000000   0.0000000  )

     number of k points=   110

     Number of k-points >= 100: set verbosity='high' to print them.

     Dense  grid:     1243 G-vectors     FFT dimensions: (  15,  15,  15)

     Estimated max dynamical RAM per process >      15.45 MB

     Check: negative core charge=   -0.000029

     Initial potential from superposition of free atoms

     starting charge       9.9999, renormalised to      10.0000

     negative rho (up, down):  1.043E-04 0.000E+00
     Starting wfcs are   12 randomized atomic wfcs

     total cpu time spent up to now is        0.5 secs

     Self-consistent Calculation

     iteration #  1     ecut=    20.00 Ry     beta= 0.70
     Davidson diagonalization with overlap
     ethr =  1.00E-02,  avg # of iterations =  2.3

     Threshold (ethr) on eigenvalues was too large:
     Diagonalizing with lowered threshold

     Davidson diagonalization with overlap
     c_bands:  5 eigenvalues not converged
     ethr =  1.30E-05,  avg # of iterations =  9.0

     negative rho (up, down):  1.944E-04 0.000E+00

     total cpu time spent up to now is        2.4 secs

     total energy              =     -69.45530638 Ry
     estimated scf accuracy    <       0.00406257 Ry

     iteration #  2     ecut=    20.00 Ry     beta= 0.70
     Davidson diagonalization with overlap
     ethr =  4.06E-05,  avg # of iterations =  2.2

     negative rho (up, down):  2.190E-04 0.000E+00

     total cpu time spent up to now is        3.0 secs

     total energy              =     -69.45638780 Ry
     estimated scf accuracy    <       0.00048744 Ry

     iteration #  3     ecut=    20.00 Ry     beta= 0.70
     Davidson diagonalization with overlap
     ethr =  4.87E-06,  avg # of iterations =  2.2

     negative rho (up, down):  2.375E-04 0.000E+00

     total cpu time spent up to now is        3.6 secs

     total energy              =     -69.45646856 Ry
     estimated scf accuracy    <       0.00001427 Ry

     iteration #  4     ecut=    20.00 Ry     beta= 0.70
     Davidson diagonalization with overlap
     c_bands:  2 eigenvalues not converged
     ethr =  1.43E-07,  avg # of iterations =  6.6

     negative rho (up, down):  2.377E-04 0.000E+00

     total cpu time spent up to now is        4.6 secs

     total energy              =     -69.45648758 Ry
     estimated scf accuracy    <       0.00000294 Ry

     iteration #  5     ecut=    20.00 Ry     beta= 0.70
     Davidson diagonalization with overlap
     ethr =  2.94E-08,  avg # of iterations =  3.0

     negative rho (up, down):  2.382E-04 0.000E+00

     total cpu time spent up to now is        5.1 secs

     total energy              =     -69.45648781 Ry
     estimated scf accuracy    <       0.00000044 Ry

     iteration #  6     ecut=    20.00 Ry     beta= 0.70
     Davidson diagonalization with overlap
     ethr =  4.43E-09,  avg # of iterations =  4.4

     negative rho (up, down):  2.383E-04 0.000E+00

     total cpu time spent up to now is        5.8 secs

     total energy              =     -69.45648807 Ry
     estimated scf accuracy    <       0.00000002 Ry

     iteration #  7     ecut=    20.00 Ry     beta= 0.70
     Davidson diagonalization with overlap
     c_bands:  2 eigenvalues not converged
     ethr =  2.11E-10,  avg # of iterations =  4.6

     negative rho (up, down):  2.383E-04 0.000E+00

     total cpu time spent up to now is        6.6 secs

     End of self-consistent calculation

     Number of k-points >= 100: set verbosity='high' to print the bands.

     highest occupied level (ev):    18.9317

!    total energy              =     -69.45648809 Ry
     estimated scf accuracy    <          9.6E-11 Ry

     The total energy is the sum of the following terms:
     one-electron contribution =      17.64944541 Ry
     hartree contribution      =       3.67969574 Ry
     xc contribution           =     -28.57583174 Ry
     ewald contribution        =     -62.20979750 Ry

     convergence has been achieved in   7 iterations

     negative rho (up, down):  2.383E-04 0.000E+00

     Forces acting on atoms (cartesian axes, Ry/au):

     atom    1 type  1   force =     0.00000000    0.00000000    0.00000000

     Total force =     0.000000     Total SCF correction =     0.000000


     Computing stress (Cartesian axis) and pressure


     negative rho (up, down):  2.383E-04 0.000E+00
          total   stress  (Ry/bohr**3)                   (kbar)     P=      121.31
   0.00082463   0.00000000   0.00000000          121.31        0.00        0.00
   0.00000000   0.00082463  -0.00000000            0.00      121.31       -0.00
   0.00000000  -0.00000000   0.00082463            0.00       -0.00      121.31


     Writing all to output data dir ./platinum.save/ :
     XML data file, charge density, pseudopotentials, collected wavefunctions

     init_run     :      0.34s CPU      0.39s WALL (       1 calls)
     electrons    :      5.30s CPU      6.06s WALL (       1 calls)
     forces       :      0.10s CPU      0.10s WALL (       1 calls)
     stress       :      0.33s CPU      0.33s WALL (       1 calls)

     Called by init_run:
     wfcinit      :      0.16s CPU      0.20s WALL (       1 calls)
     potinit      :      0.01s CPU      0.01s WALL (       1 calls)
     hinit0       :      0.16s CPU      0.17s WALL (       1 calls)

     Called by electrons:
     c_bands      :      4.45s CPU      5.15s WALL (       8 calls)
     sum_band     :      0.77s CPU      0.82s WALL (       8 calls)
     v_of_rho     :      0.00s CPU      0.00s WALL (       8 calls)
     newd         :      0.08s CPU      0.09s WALL (       8 calls)
     mix_rho      :      0.00s CPU      0.00s WALL (       8 calls)

     Called by c_bands:
     init_us_2    :      0.07s CPU      0.08s WALL (    2090 calls)
     cegterg      :      4.21s CPU      4.87s WALL (     882 calls)

     Called by *egterg:
     cdiaghg      :      0.29s CPU      0.33s WALL (    4536 calls)
     h_psi        :      2.43s CPU      2.84s WALL (    4758 calls)
     s_psi        :      0.38s CPU      0.44s WALL (    4758 calls)
     g_psi        :      0.04s CPU      0.05s WALL (    3766 calls)

     Called by h_psi:
     h_psi:calbec :      0.30s CPU      0.35s WALL (    4758 calls)
     vloc_psi     :      1.70s CPU      1.98s WALL (    4758 calls)
     add_vuspsi   :      0.38s CPU      0.44s WALL (    4758 calls)

     General routines
     calbec       :      0.41s CPU      0.47s WALL (    6188 calls)
     fft          :      0.02s CPU      0.03s WALL (      89 calls)
     ffts         :      0.00s CPU      0.00s WALL (      32 calls)
     fftw         :      1.27s CPU      1.48s WALL (  153224 calls)

     Parallel routines

     PWSCF        :      6.17s CPU      7.01s WALL


   This run was terminated on:  13:52:25   4Nov2024            

=------------------------------------------------------------------------------=
   JOB DONE.
=------------------------------------------------------------------------------=
