
     Program PWSCF v.7.3.1 starts on  4Nov2024 at 22: 1: 0 

     This program is part of the open-source Quantum ESPRESSO suite
     for quantum simulation of materials; please cite
         "P. Giannozzi et al., J. Phys.:Condens. Matter 21 395502 (2009);
         "P. Giannozzi et al., J. Phys.:Condens. Matter 29 465901 (2017);
         "P. Giannozzi et al., J. Chem. Phys. 152 154105 (2020);
          URL http://www.quantum-espresso.org", 
     in publications or presentations arising from this work. More details at
     http://www.quantum-espresso.org/quote

     Parallel version (MPI), running on     1 processors

     MPI processes distributed on     1 nodes
     11862 MiB available memory on the printing compute node when the environment starts

     Waiting for input...
     Reading input from standard input

     Current dimensions of program PWSCF are:
     Max number of different atomic species (ntypx) = 10
     Max number of k-points (npk) =  40000
     Max angular momentum in pseudopotentials (lmaxx) =  4

     Subspace diagonalization in iterative solution of the eigenvalue problem:
     a serial algorithm will be used


     G-vector sticks info
     --------------------
     sticks:   dense  smooth     PW     G-vecs:    dense   smooth      PW
     Sum         151     151     55                 1243     1243     283

     Using Slab Decomposition



     bravais-lattice index     =            2
     lattice parameter (alat)  =       7.4000  a.u.
     unit-cell volume          =     101.3060 (a.u.)^3
     number of atoms/cell      =            1
     number of atomic types    =            1
     number of electrons       =        10.00
     number of Kohn-Sham states=           10
     kinetic-energy cutoff     =      20.0000  Ry
     charge density cutoff     =      80.0000  Ry
     scf convergence threshold =      1.0E-08
     mixing beta               =       0.7000
     number of iterations used =            8  plain     mixing
     Exchange-correlation=  SLA  PZ   NOGX NOGC
                           (   1   1   0   0   0   0   0)
     Non magnetic calculation with spin-orbit


     celldm(1)=   7.400000  celldm(2)=   0.000000  celldm(3)=   0.000000
     celldm(4)=   0.000000  celldm(5)=   0.000000  celldm(6)=   0.000000

     crystal axes: (cart. coord. in units of alat)
               a(1) = (  -0.500000   0.000000   0.500000 )  
               a(2) = (   0.000000   0.500000   0.500000 )  
               a(3) = (  -0.500000   0.500000   0.000000 )  

     reciprocal axes: (cart. coord. in units 2 pi/alat)
               b(1) = ( -1.000000 -1.000000  1.000000 )  
               b(2) = (  1.000000  1.000000  1.000000 )  
               b(3) = ( -1.000000  1.000000 -1.000000 )  


     PseudoPot. # 1 for Pt read from file:
     /home/dashlander/Desktop/Sem7/CPD/Assignment_3/pseudo/Pt.rel-pz-n-rrkjus.UPF
     MD5 check sum: 4baafe8ec1942611396c7a5466f52249
     Pseudo is Ultrasoft + core correction, Zval = 10.0
     Generated by new atomic code, or converted to UPF format
     Using radial grid of 1277 points,  6 beta functions with: 
                l(1) =   2
                l(2) =   2
                l(3) =   2
                l(4) =   2
                l(5) =   1
                l(6) =   1
     Q(r) pseudized with 0 coefficients 


     atomic species   valence    mass     pseudopotential
     Pt               10.00   195.08400     Pt( 1.00)

     48 Sym. Ops., with inversion, found



   Cartesian axes

     site n.     atom                  positions (alat units)
         1        Pt     tau(   1) = (   0.0000000   0.0000000   0.0000000  )

     number of k points=    35
                       cart. coord. in units 2pi/alat
        k(    1) = (   0.0000000   0.0000000   0.0000000), wk =   0.0013717
        k(    2) = (  -0.1111111   0.1111111  -0.1111111), wk =   0.0109739
        k(    3) = (  -0.2222222   0.2222222  -0.2222222), wk =   0.0109739
        k(    4) = (  -0.3333333   0.3333333  -0.3333333), wk =   0.0109739
        k(    5) = (  -0.4444444   0.4444444  -0.4444444), wk =   0.0109739
        k(    6) = (   0.0000000   0.2222222   0.0000000), wk =   0.0082305
        k(    7) = (  -0.1111111   0.3333333  -0.1111111), wk =   0.0329218
        k(    8) = (  -0.2222222   0.4444444  -0.2222222), wk =   0.0329218
        k(    9) = (  -0.3333333   0.5555556  -0.3333333), wk =   0.0329218
        k(   10) = (   0.5555556  -0.3333333   0.5555556), wk =   0.0329218
        k(   11) = (   0.4444444  -0.2222222   0.4444444), wk =   0.0329218
        k(   12) = (   0.3333333  -0.1111111   0.3333333), wk =   0.0329218
        k(   13) = (   0.2222222  -0.0000000   0.2222222), wk =   0.0164609
        k(   14) = (   0.0000000   0.4444444   0.0000000), wk =   0.0082305
        k(   15) = (  -0.1111111   0.5555556  -0.1111111), wk =   0.0329218
        k(   16) = (  -0.2222222   0.6666667  -0.2222222), wk =   0.0329218
        k(   17) = (   0.6666667  -0.2222222   0.6666667), wk =   0.0329218
        k(   18) = (   0.5555556  -0.1111111   0.5555556), wk =   0.0329218
        k(   19) = (   0.4444444   0.0000000   0.4444444), wk =   0.0164609
        k(   20) = (   0.0000000   0.6666667   0.0000000), wk =   0.0082305
        k(   21) = (  -0.1111111   0.7777778  -0.1111111), wk =   0.0329218
        k(   22) = (   0.7777778  -0.1111111   0.7777778), wk =   0.0329218
        k(   23) = (   0.6666667  -0.0000000   0.6666667), wk =   0.0164609
        k(   24) = (   0.0000000   0.8888889   0.0000000), wk =   0.0082305
        k(   25) = (   0.8888889   0.0000000   0.8888889), wk =   0.0164609
        k(   26) = (  -0.2222222   0.4444444   0.0000000), wk =   0.0329218
        k(   27) = (  -0.3333333   0.5555556  -0.1111111), wk =   0.0658436
        k(   28) = (   0.5555556  -0.3333333   0.7777778), wk =   0.0658436
        k(   29) = (  -0.2222222   0.6666667   0.0000000), wk =   0.0329218
        k(   30) = (   0.6666667  -0.2222222   0.8888889), wk =   0.0658436
        k(   31) = (   0.5555556  -0.1111111   0.7777778), wk =   0.0658436
        k(   32) = (   0.4444444   0.0000000   0.6666667), wk =   0.0329218
        k(   33) = (   0.7777778  -0.1111111   1.0000000), wk =   0.0329218
        k(   34) = (   0.6666667  -0.0000000   0.8888889), wk =   0.0329218
        k(   35) = (   0.5555556  -0.1111111   1.0000000), wk =   0.0329218

     Dense  grid:     1243 G-vectors     FFT dimensions: (  15,  15,  15)

     Estimated max dynamical RAM per process >      12.02 MB

     Check: negative core charge=   -0.000036

     Initial potential from superposition of free atoms

     starting charge       9.9999, renormalised to      10.0000

     negative rho (up, down):  1.252E-04 0.000E+00
     Starting wfcs are   12 randomized atomic wfcs

     total cpu time spent up to now is        0.4 secs

     Self-consistent Calculation

     iteration #  1     ecut=    20.00 Ry     beta= 0.70
     Davidson diagonalization with overlap
     ethr =  1.00E-02,  avg # of iterations =  2.1

     Threshold (ethr) on eigenvalues was too large:
     Diagonalizing with lowered threshold

     Davidson diagonalization with overlap
     c_bands:  1 eigenvalues not converged
     ethr =  1.91E-05,  avg # of iterations =  7.5

     negative rho (up, down):  2.139E-04 0.000E+00

     total cpu time spent up to now is        0.9 secs

     total energy              =     -69.45555311 Ry
     estimated scf accuracy    <       0.00421556 Ry

     iteration #  2     ecut=    20.00 Ry     beta= 0.70
     Davidson diagonalization with overlap
     ethr =  4.22E-05,  avg # of iterations =  2.1

     negative rho (up, down):  2.385E-04 0.000E+00

     total cpu time spent up to now is        1.1 secs

     total energy              =     -69.45667328 Ry
     estimated scf accuracy    <       0.00048921 Ry

     iteration #  3     ecut=    20.00 Ry     beta= 0.70
     Davidson diagonalization with overlap
     ethr =  4.89E-06,  avg # of iterations =  2.0

     negative rho (up, down):  2.569E-04 0.000E+00

     total cpu time spent up to now is        1.3 secs

     total energy              =     -69.45675065 Ry
     estimated scf accuracy    <       0.00001500 Ry

     iteration #  4     ecut=    20.00 Ry     beta= 0.70
     Davidson diagonalization with overlap
     ethr =  1.50E-07,  avg # of iterations =  6.3

     negative rho (up, down):  2.571E-04 0.000E+00

     total cpu time spent up to now is        1.6 secs

     total energy              =     -69.45677076 Ry
     estimated scf accuracy    <       0.00000335 Ry

     iteration #  5     ecut=    20.00 Ry     beta= 0.70
     Davidson diagonalization with overlap
     c_bands:  1 eigenvalues not converged
     ethr =  3.35E-08,  avg # of iterations =  3.3

     negative rho (up, down):  2.575E-04 0.000E+00

     total cpu time spent up to now is        1.8 secs

     total energy              =     -69.45677149 Ry
     estimated scf accuracy    <       0.00000007 Ry

     iteration #  6     ecut=    20.00 Ry     beta= 0.70
     Davidson diagonalization with overlap
     ethr =  7.43E-10,  avg # of iterations =  7.7

     negative rho (up, down):  2.575E-04 0.000E+00

     total cpu time spent up to now is        2.2 secs

     total energy              =     -69.45677174 Ry
     estimated scf accuracy    <       0.00000005 Ry

     iteration #  7     ecut=    20.00 Ry     beta= 0.70
     Davidson diagonalization with overlap
     ethr =  5.35E-10,  avg # of iterations =  1.1

     negative rho (up, down):  2.575E-04 0.000E+00

     total cpu time spent up to now is        2.3 secs

     total energy              =     -69.45677169 Ry
     estimated scf accuracy    <       0.00000009 Ry

     iteration #  8     ecut=    20.00 Ry     beta= 0.70
     Davidson diagonalization with overlap
     ethr =  5.35E-10,  avg # of iterations =  2.1

     negative rho (up, down):  2.575E-04 0.000E+00

     total cpu time spent up to now is        2.5 secs

     End of self-consistent calculation

          k = 0.0000 0.0000 0.0000 (   169 PWs)   bands (ev):

     7.3859   7.3859  13.5223  13.5223  13.5223  13.5223  14.5142  14.5142
    16.3138  16.3138

          k =-0.1111 0.1111-0.1111 (   159 PWs)   bands (ev):

     7.8727   7.8727  13.4696  13.4696  13.6297  13.6297  14.6257  14.6257
    16.1485  16.1485

          k =-0.2222 0.2222-0.2222 (   153 PWs)   bands (ev):

     9.1098   9.1098  13.3720  13.3720  13.7164  13.7164  14.9072  14.9072
    16.0566  16.0566

          k =-0.3333 0.3333-0.3333 (   153 PWs)   bands (ev):

    10.1458  10.1458  13.5505  13.5505  14.2569  14.2569  14.6755  14.6755
    16.8099  16.8099

          k =-0.4444 0.4444-0.4444 (   156 PWs)   bands (ev):

    10.3398  10.3398  13.3623  13.3623  14.3759  14.3759  16.4641  16.4641
    17.5229  17.5229

          k = 0.0000 0.2222 0.0000 (   161 PWs)   bands (ev):

     8.0365   8.0365  13.3035  13.3035  13.7888  13.7888  14.7048  14.7048
    15.9284  15.9284

          k =-0.1111 0.3333-0.1111 (   155 PWs)   bands (ev):

     9.0546   9.0546  13.0213  13.0213  13.9323  13.9323  15.0613  15.0613
    15.7571  15.7571

          k =-0.2222 0.4444-0.2222 (   151 PWs)   bands (ev):

    10.2985  10.2985  13.2024  13.2024  13.7024  13.7024  14.9200  14.9200
    16.6687  16.6687

          k =-0.3333 0.5556-0.3333 (   151 PWs)   bands (ev):

    10.7009  10.7009  13.3515  13.3515  14.3660  14.3660  14.8858  14.8858
    17.7868  17.7868

          k = 0.5556-0.3333 0.5556 (   158 PWs)   bands (ev):

    10.7263  10.7263  13.2750  13.2750  14.3850  14.3850  15.5641  15.5641
    17.7224  17.7224

          k = 0.4444-0.2222 0.4444 (   151 PWs)   bands (ev):

    10.6903  10.6903  13.4389  13.4389  14.2803  14.2803  14.6447  14.6447
    16.8559  16.8559

          k = 0.3333-0.1111 0.3333 (   150 PWs)   bands (ev):

     9.9590   9.9590  13.1361  13.1361  13.7955  13.7955  14.9984  14.9984
    15.8594  15.8594

          k = 0.2222-0.0000 0.2222 (   157 PWs)   bands (ev):

     8.6333   8.6333  13.2445  13.2445  13.8056  13.8056  14.8828  14.8828
    15.7976  15.7976

          k = 0.0000 0.4444 0.0000 (   149 PWs)   bands (ev):

     9.7051   9.7051  12.5193  12.5193  14.2163  14.2163  15.5885  15.5885
    15.6281  15.6281

          k =-0.1111 0.5556-0.1111 (   153 PWs)   bands (ev):

    10.7093  10.7093  12.2188  12.2188  14.0418  14.0418  15.7612  15.7612
    16.6883  16.6883

          k =-0.2222 0.6667-0.2222 (   149 PWs)   bands (ev):

    11.2715  11.2715  12.5839  12.5839  13.8267  13.8267  15.5344  15.5344
    17.9113  17.9113

          k = 0.6667-0.2222 0.6667 (   155 PWs)   bands (ev):

    11.4762  11.4762  12.8329  12.8329  14.1478  14.1478  15.2960  15.2960
    17.7972  17.7972

          k = 0.5556-0.1111 0.5556 (   155 PWs)   bands (ev):

    11.7137  11.7137  13.0138  13.0138  13.7920  13.7920  15.1134  15.1134
    16.8935  16.8935

          k = 0.4444 0.0000 0.4444 (   152 PWs)   bands (ev):

    11.2955  11.2955  12.8838  12.8838  13.5639  13.5639  15.1589  15.1589
    15.9347  15.9347

          k = 0.0000 0.6667 0.0000 (   153 PWs)   bands (ev):

    10.8228  10.8228  11.6528  11.6528  15.2713  15.2713  16.7849  16.7849
    16.8335  16.8335

          k =-0.1111 0.7778-0.1111 (   154 PWs)   bands (ev):

    10.9862  10.9862  11.5380  11.5380  15.4816  15.4816  16.8645  16.8645
    17.9947  17.9947

          k = 0.7778-0.1111 0.7778 (   152 PWs)   bands (ev):

    11.2935  11.2935  12.0150  12.0150  14.8825  14.8825  16.4604  16.4604
    18.0128  18.0128

          k = 0.6667-0.0000 0.6667 (   150 PWs)   bands (ev):

    11.7931  11.7931  12.6989  12.6989  13.9667  13.9667  15.8722  15.8722
    17.3397  17.3397

          k = 0.0000 0.8889 0.0000 (   150 PWs)   bands (ev):

    10.6176  10.6176  11.1318  11.1318  17.5255  17.5255  17.6499  17.6499
    18.6576  18.6576

          k = 0.8889 0.0000 0.8889 (   154 PWs)   bands (ev):

    10.7788  10.7788  11.2779  11.2779  16.6355  16.6355  17.3949  17.3949
    18.4198  18.4198

          k =-0.2222 0.4444 0.0000 (   152 PWs)   bands (ev):

    10.1807  10.1807  12.6773  12.6773  13.8481  13.8481  15.4960  15.4960
    15.7257  15.7257

          k =-0.3333 0.5556-0.1111 (   150 PWs)   bands (ev):

    11.2383  11.2383  12.9230  12.9230  13.4135  13.4135  15.3058  15.3058
    16.7179  16.7179

          k = 0.5556-0.3333 0.7778 (   157 PWs)   bands (ev):

    11.3853  11.3853  12.9678  12.9678  14.1011  14.1011  15.1149  15.1149
    17.6002  17.6002

          k =-0.2222 0.6667 0.0000 (   150 PWs)   bands (ev):

    11.3342  11.3342  11.9705  11.9705  14.0434  14.0434  16.6015  16.6015
    16.8796  16.8796

          k = 0.6667-0.2222 0.8889 (   153 PWs)   bands (ev):

    11.6788  11.6788  12.3122  12.3122  13.8394  13.8394  16.2119  16.2119
    17.7560  17.7560

          k = 0.5556-0.1111 0.7778 (   156 PWs)   bands (ev):

    12.0481  12.0481  12.5632  12.5632  13.6660  13.6660  15.7785  15.7785
    17.6597  17.6597

          k = 0.4444 0.0000 0.6667 (   151 PWs)   bands (ev):

    12.3537  12.3537  12.6953  12.6953  12.9553  12.9553  15.7859  15.7859
    16.9345  16.9345

          k = 0.7778-0.1111 1.0000 (   153 PWs)   bands (ev):

    11.0887  11.0887  11.5290  11.5290  15.4892  15.4892  17.1444  17.1444
    18.2218  18.2218

          k = 0.6667-0.0000 0.8889 (   151 PWs)   bands (ev):

    11.5100  11.5100  12.0842  12.0842  14.5570  14.5570  16.4232  16.4232
    18.1843  18.1843

          k = 0.5556-0.1111 1.0000 (   151 PWs)   bands (ev):

    11.9791  11.9791  12.6775  12.6775  13.4063  13.4063  16.0320  16.0320
    18.1536  18.1536

     highest occupied level (ev):    18.6576

!    total energy              =     -69.45677170 Ry
     estimated scf accuracy    <          3.4E-09 Ry

     The total energy is the sum of the following terms:
     one-electron contribution =      17.31652768 Ry
     hartree contribution      =       3.74279102 Ry
     xc contribution           =     -28.55849479 Ry
     ewald contribution        =     -61.95759562 Ry

     convergence has been achieved in   8 iterations

     negative rho (up, down):  2.575E-04 0.000E+00

     Forces acting on atoms (cartesian axes, Ry/au):

     atom    1 type  1   force =     0.00000000    0.00000000    0.00000000

     Total force =     0.000000     Total SCF correction =     0.000000


     Computing stress (Cartesian axis) and pressure


     negative rho (up, down):  2.575E-04 0.000E+00
          total   stress  (Ry/bohr**3)                   (kbar)     P=       82.52
   0.00056093   0.00000000   0.00000000           82.52        0.00        0.00
   0.00000000   0.00056093  -0.00000000            0.00       82.52       -0.00
   0.00000000  -0.00000000   0.00056093            0.00       -0.00       82.52


     Writing all to output data dir ./platinum.save/ :
     XML data file, charge density, pseudopotentials, collected wavefunctions

     init_run     :      0.23s CPU      0.27s WALL (       1 calls)
     electrons    :      1.91s CPU      2.18s WALL (       1 calls)
     forces       :      0.04s CPU      0.04s WALL (       1 calls)
     stress       :      0.16s CPU      0.16s WALL (       1 calls)

     Called by init_run:
     wfcinit      :      0.05s CPU      0.07s WALL (       1 calls)
     potinit      :      0.01s CPU      0.01s WALL (       1 calls)
     hinit0       :      0.16s CPU      0.17s WALL (       1 calls)

     Called by electrons:
     c_bands      :      1.51s CPU      1.74s WALL (       9 calls)
     sum_band     :      0.31s CPU      0.34s WALL (       9 calls)
     v_of_rho     :      0.00s CPU      0.00s WALL (       9 calls)
     newd         :      0.10s CPU      0.10s WALL (       9 calls)
     mix_rho      :      0.00s CPU      0.00s WALL (       9 calls)

     Called by c_bands:
     init_us_2    :      0.02s CPU      0.03s WALL (     735 calls)
     cegterg      :      1.42s CPU      1.64s WALL (     315 calls)

     Called by *egterg:
     cdiaghg      :      0.09s CPU      0.10s WALL (    1477 calls)
     h_psi        :      0.84s CPU      0.98s WALL (    1547 calls)
     s_psi        :      0.13s CPU      0.15s WALL (    1547 calls)
     g_psi        :      0.01s CPU      0.02s WALL (    1197 calls)

     Called by h_psi:
     h_psi:calbec :      0.10s CPU      0.12s WALL (    1547 calls)
     vloc_psi     :      0.58s CPU      0.69s WALL (    1547 calls)
     add_vuspsi   :      0.13s CPU      0.15s WALL (    1547 calls)

     General routines
     calbec       :      0.14s CPU      0.16s WALL (    2037 calls)
     fft          :      0.02s CPU      0.03s WALL (      99 calls)
     ffts         :      0.00s CPU      0.00s WALL (      36 calls)
     fftw         :      0.44s CPU      0.51s WALL (   52624 calls)

     Parallel routines

     PWSCF        :      2.45s CPU      2.75s WALL


   This run was terminated on:  22: 1: 2   4Nov2024            

=------------------------------------------------------------------------------=
   JOB DONE.
=------------------------------------------------------------------------------=
