
     Program PWSCF v.7.3.1 starts on  4Nov2024 at 22: 2:15 

     This program is part of the open-source Quantum ESPRESSO suite
     for quantum simulation of materials; please cite
         "P. Giannozzi et al., J. Phys.:Condens. Matter 21 395502 (2009);
         "P. Giannozzi et al., J. Phys.:Condens. Matter 29 465901 (2017);
         "P. Giannozzi et al., J. Chem. Phys. 152 154105 (2020);
          URL http://www.quantum-espresso.org", 
     in publications or presentations arising from this work. More details at
     http://www.quantum-espresso.org/quote

     Parallel version (MPI), running on     1 processors

     MPI processes distributed on     1 nodes
     11843 MiB available memory on the printing compute node when the environment starts

     Waiting for input...
     Reading input from standard input

     Current dimensions of program PWSCF are:
     Max number of different atomic species (ntypx) = 10
     Max number of k-points (npk) =  40000
     Max angular momentum in pseudopotentials (lmaxx) =  4

     Subspace diagonalization in iterative solution of the eigenvalue problem:
     a serial algorithm will be used


     G-vector sticks info
     --------------------
     sticks:   dense  smooth     PW     G-vecs:    dense   smooth      PW
     Sum         163     163     61                 1411     1411     331

     Using Slab Decomposition



     bravais-lattice index     =            2
     lattice parameter (alat)  =       7.7200  a.u.
     unit-cell volume          =     115.0249 (a.u.)^3
     number of atoms/cell      =            1
     number of atomic types    =            1
     number of electrons       =        10.00
     number of Kohn-Sham states=           10
     kinetic-energy cutoff     =      20.0000  Ry
     charge density cutoff     =      80.0000  Ry
     scf convergence threshold =      1.0E-08
     mixing beta               =       0.7000
     number of iterations used =            8  plain     mixing
     Exchange-correlation=  SLA  PZ   NOGX NOGC
                           (   1   1   0   0   0   0   0)
     Non magnetic calculation with spin-orbit


     celldm(1)=   7.720000  celldm(2)=   0.000000  celldm(3)=   0.000000
     celldm(4)=   0.000000  celldm(5)=   0.000000  celldm(6)=   0.000000

     crystal axes: (cart. coord. in units of alat)
               a(1) = (  -0.500000   0.000000   0.500000 )  
               a(2) = (   0.000000   0.500000   0.500000 )  
               a(3) = (  -0.500000   0.500000   0.000000 )  

     reciprocal axes: (cart. coord. in units 2 pi/alat)
               b(1) = ( -1.000000 -1.000000  1.000000 )  
               b(2) = (  1.000000  1.000000  1.000000 )  
               b(3) = ( -1.000000  1.000000 -1.000000 )  


     PseudoPot. # 1 for Pt read from file:
     /home/dashlander/Desktop/Sem7/CPD/Assignment_3/pseudo/Pt.rel-pz-n-rrkjus.UPF
     MD5 check sum: 4baafe8ec1942611396c7a5466f52249
     Pseudo is Ultrasoft + core correction, Zval = 10.0
     Generated by new atomic code, or converted to UPF format
     Using radial grid of 1277 points,  6 beta functions with: 
                l(1) =   2
                l(2) =   2
                l(3) =   2
                l(4) =   2
                l(5) =   1
                l(6) =   1
     Q(r) pseudized with 0 coefficients 


     atomic species   valence    mass     pseudopotential
     Pt               10.00   195.08400     Pt( 1.00)

     48 Sym. Ops., with inversion, found



   Cartesian axes

     site n.     atom                  positions (alat units)
         1        Pt     tau(   1) = (   0.0000000   0.0000000   0.0000000  )

     number of k points=    35
                       cart. coord. in units 2pi/alat
        k(    1) = (   0.0000000   0.0000000   0.0000000), wk =   0.0013717
        k(    2) = (  -0.1111111   0.1111111  -0.1111111), wk =   0.0109739
        k(    3) = (  -0.2222222   0.2222222  -0.2222222), wk =   0.0109739
        k(    4) = (  -0.3333333   0.3333333  -0.3333333), wk =   0.0109739
        k(    5) = (  -0.4444444   0.4444444  -0.4444444), wk =   0.0109739
        k(    6) = (   0.0000000   0.2222222   0.0000000), wk =   0.0082305
        k(    7) = (  -0.1111111   0.3333333  -0.1111111), wk =   0.0329218
        k(    8) = (  -0.2222222   0.4444444  -0.2222222), wk =   0.0329218
        k(    9) = (  -0.3333333   0.5555556  -0.3333333), wk =   0.0329218
        k(   10) = (   0.5555556  -0.3333333   0.5555556), wk =   0.0329218
        k(   11) = (   0.4444444  -0.2222222   0.4444444), wk =   0.0329218
        k(   12) = (   0.3333333  -0.1111111   0.3333333), wk =   0.0329218
        k(   13) = (   0.2222222  -0.0000000   0.2222222), wk =   0.0164609
        k(   14) = (   0.0000000   0.4444444   0.0000000), wk =   0.0082305
        k(   15) = (  -0.1111111   0.5555556  -0.1111111), wk =   0.0329218
        k(   16) = (  -0.2222222   0.6666667  -0.2222222), wk =   0.0329218
        k(   17) = (   0.6666667  -0.2222222   0.6666667), wk =   0.0329218
        k(   18) = (   0.5555556  -0.1111111   0.5555556), wk =   0.0329218
        k(   19) = (   0.4444444   0.0000000   0.4444444), wk =   0.0164609
        k(   20) = (   0.0000000   0.6666667   0.0000000), wk =   0.0082305
        k(   21) = (  -0.1111111   0.7777778  -0.1111111), wk =   0.0329218
        k(   22) = (   0.7777778  -0.1111111   0.7777778), wk =   0.0329218
        k(   23) = (   0.6666667  -0.0000000   0.6666667), wk =   0.0164609
        k(   24) = (   0.0000000   0.8888889   0.0000000), wk =   0.0082305
        k(   25) = (   0.8888889   0.0000000   0.8888889), wk =   0.0164609
        k(   26) = (  -0.2222222   0.4444444   0.0000000), wk =   0.0329218
        k(   27) = (  -0.3333333   0.5555556  -0.1111111), wk =   0.0658436
        k(   28) = (   0.5555556  -0.3333333   0.7777778), wk =   0.0658436
        k(   29) = (  -0.2222222   0.6666667   0.0000000), wk =   0.0329218
        k(   30) = (   0.6666667  -0.2222222   0.8888889), wk =   0.0658436
        k(   31) = (   0.5555556  -0.1111111   0.7777778), wk =   0.0658436
        k(   32) = (   0.4444444   0.0000000   0.6666667), wk =   0.0329218
        k(   33) = (   0.7777778  -0.1111111   1.0000000), wk =   0.0329218
        k(   34) = (   0.6666667  -0.0000000   0.8888889), wk =   0.0329218
        k(   35) = (   0.5555556  -0.1111111   1.0000000), wk =   0.0329218

     Dense  grid:     1411 G-vectors     FFT dimensions: (  15,  15,  15)

     Estimated max dynamical RAM per process >      13.46 MB

     Check: negative core charge=   -0.000050

     Initial potential from superposition of free atoms

     starting charge       9.9999, renormalised to      10.0000

     negative rho (up, down):  1.745E-04 0.000E+00
     Starting wfcs are   12 randomized atomic wfcs

     total cpu time spent up to now is        0.4 secs

     Self-consistent Calculation

     iteration #  1     ecut=    20.00 Ry     beta= 0.70
     Davidson diagonalization with overlap
     ethr =  1.00E-02,  avg # of iterations =  2.0

     Threshold (ethr) on eigenvalues was too large:
     Diagonalizing with lowered threshold

     Davidson diagonalization with overlap
     ethr =  3.87E-05,  avg # of iterations =  6.7

     negative rho (up, down):  2.554E-04 0.000E+00

     total cpu time spent up to now is        1.0 secs

     total energy              =     -69.44908752 Ry
     estimated scf accuracy    <       0.00237306 Ry

     iteration #  2     ecut=    20.00 Ry     beta= 0.70
     Davidson diagonalization with overlap
     ethr =  2.37E-05,  avg # of iterations =  2.3

     negative rho (up, down):  2.778E-04 0.000E+00

     total cpu time spent up to now is        1.2 secs

     total energy              =     -69.44963422 Ry
     estimated scf accuracy    <       0.00027671 Ry

     iteration #  3     ecut=    20.00 Ry     beta= 0.70
     Davidson diagonalization with overlap
     ethr =  2.77E-06,  avg # of iterations =  2.6

     negative rho (up, down):  2.940E-04 0.000E+00

     total cpu time spent up to now is        1.4 secs

     total energy              =     -69.44969167 Ry
     estimated scf accuracy    <       0.00000972 Ry

     iteration #  4     ecut=    20.00 Ry     beta= 0.70
     Davidson diagonalization with overlap
     ethr =  9.72E-08,  avg # of iterations =  6.7

     negative rho (up, down):  2.940E-04 0.000E+00

     total cpu time spent up to now is        1.7 secs

     total energy              =     -69.44970485 Ry
     estimated scf accuracy    <       0.00000192 Ry

     iteration #  5     ecut=    20.00 Ry     beta= 0.70
     Davidson diagonalization with overlap
     ethr =  1.92E-08,  avg # of iterations =  3.5

     negative rho (up, down):  2.942E-04 0.000E+00

     total cpu time spent up to now is        2.0 secs

     total energy              =     -69.44970534 Ry
     estimated scf accuracy    <       0.00000005 Ry

     iteration #  6     ecut=    20.00 Ry     beta= 0.70
     Davidson diagonalization with overlap
     ethr =  5.01E-10,  avg # of iterations =  6.5

     negative rho (up, down):  2.943E-04 0.000E+00

     total cpu time spent up to now is        2.3 secs

     total energy              =     -69.44970542 Ry
     estimated scf accuracy    <       0.00000001 Ry

     iteration #  7     ecut=    20.00 Ry     beta= 0.70
     Davidson diagonalization with overlap
     ethr =  1.22E-10,  avg # of iterations =  3.0

     negative rho (up, down):  2.943E-04 0.000E+00

     total cpu time spent up to now is        2.6 secs

     End of self-consistent calculation

          k = 0.0000 0.0000 0.0000 (   169 PWs)   bands (ev):

     5.6699   5.6699  11.1420  11.1420  11.1420  11.1420  12.1604  12.1604
    13.5834  13.5834

          k =-0.1111 0.1111-0.1111 (   169 PWs)   bands (ev):

     6.1018   6.1018  11.1150  11.1150  11.2209  11.2209  12.2495  12.2495
    13.4448  13.4448

          k =-0.2222 0.2222-0.2222 (   168 PWs)   bands (ev):

     7.2244   7.2244  11.0690  11.0690  11.2836  11.2836  12.4864  12.4864
    13.3419  13.3419

          k =-0.3333 0.3333-0.3333 (   171 PWs)   bands (ev):

     8.2457   8.2457  11.1594  11.1594  11.8284  11.8284  12.3014  12.3014
    13.9423  13.9423

          k =-0.4444 0.4444-0.4444 (   168 PWs)   bands (ev):

     8.4894   8.4894  11.0149  11.0149  12.0398  12.0398  13.8558  13.8558
    14.5323  14.5323

          k = 0.0000 0.2222 0.0000 (   169 PWs)   bands (ev):

     6.2477   6.2477  10.9866  10.9866  11.3483  11.3483  12.3042  12.3042
    13.2969  13.2969

          k =-0.1111 0.3333-0.1111 (   167 PWs)   bands (ev):

     7.1643   7.1643  10.7832  10.7832  11.4628  11.4628  12.5952  12.5952
    13.1441  13.1441

          k =-0.2222 0.4444-0.2222 (   173 PWs)   bands (ev):

     8.3412   8.3412  10.9298  10.9298  11.3200  11.3200  12.4890  12.4890
    13.8359  13.8359

          k =-0.3333 0.5556-0.3333 (   170 PWs)   bands (ev):

     8.7897   8.7897  11.0245  11.0245  11.9780  11.9780  12.4642  12.4642
    14.7258  14.7258

          k = 0.5556-0.3333 0.5556 (   174 PWs)   bands (ev):

     8.8292   8.8292  10.9643  10.9643  12.0291  12.0291  13.0382  13.0382
    14.6892  14.6892

          k = 0.4444-0.2222 0.4444 (   170 PWs)   bands (ev):

     8.7542   8.7542  11.0813  11.0813  11.8843  11.8843  12.2660  12.2660
    14.0073  14.0073

          k = 0.3333-0.1111 0.3333 (   170 PWs)   bands (ev):

     8.0004   8.0004  10.8800  10.8800  11.3695  11.3695  12.5568  12.5568
    13.2127  13.2127

          k = 0.2222-0.0000 0.2222 (   170 PWs)   bands (ev):

     6.7827   6.7827  10.9545  10.9545  11.3585  11.3585  12.4537  12.4537
    13.1753  13.1753

          k = 0.0000 0.4444 0.0000 (   169 PWs)   bands (ev):

     7.7618   7.7618  10.3887  10.3887  11.6940  11.6940  12.9837  12.9837
    13.0751  13.0751

          k =-0.1111 0.5556-0.1111 (   171 PWs)   bands (ev):

     8.7209   8.7209  10.1483  10.1483  11.6062  11.6062  13.1391  13.1391
    13.8509  13.8509

          k =-0.2222 0.6667-0.2222 (   175 PWs)   bands (ev):

     9.3027   9.3027  10.4535  10.4535  11.4645  11.4645  12.9572  12.9572
    14.8207  14.8207

          k = 0.6667-0.2222 0.6667 (   176 PWs)   bands (ev):

     9.4899   9.4899  10.6597  10.6597  11.7730  11.7730  12.7761  12.7761
    14.7490  14.7490

          k = 0.5556-0.1111 0.5556 (   175 PWs)   bands (ev):

     9.6618   9.6618  10.7817  10.7817  11.5092  11.5092  12.5983  12.5983
    14.0477  14.0477

          k = 0.4444 0.0000 0.4444 (   174 PWs)   bands (ev):

     9.2160   9.2160  10.6797  10.6797  11.2504  11.2504  12.6358  12.6358
    13.2977  13.2977

          k = 0.0000 0.6667 0.0000 (   174 PWs)   bands (ev):

     8.9109   8.9109   9.6890   9.6890  12.6317  12.6317  13.9363  13.9363
    13.9721  13.9721

          k =-0.1111 0.7778-0.1111 (   177 PWs)   bands (ev):

     9.1097   9.1097   9.5926   9.5926  12.8596  12.8596  13.9993  13.9993
    14.9146  14.9146

          k = 0.7778-0.1111 0.7778 (   176 PWs)   bands (ev):

     9.3861   9.3861   9.9871   9.9871  12.3884  12.3884  13.6738  13.6738
    14.9388  14.9388

          k = 0.6667-0.0000 0.6667 (   172 PWs)   bands (ev):

     9.7881   9.7881  10.5385  10.5385  11.6548  11.6548  13.1923  13.1923
    14.4121  14.4121

          k = 0.0000 0.8889 0.0000 (   182 PWs)   bands (ev):

     8.8205   8.8205   9.2588   9.2588  14.4694  14.4694  14.5751  14.5751
    15.5997  15.5997

          k = 0.8889 0.0000 0.8889 (   178 PWs)   bands (ev):

     8.9648   8.9648   9.3773   9.3773  13.8345  13.8345  14.3870  14.3870
    15.3117  15.3117

          k =-0.2222 0.4444 0.0000 (   166 PWs)   bands (ev):

     8.1919   8.1919  10.5172  10.5172  11.4306  11.4306  12.9440  12.9440
    13.0983  13.0983

          k =-0.3333 0.5556-0.1111 (   174 PWs)   bands (ev):

     9.2082   9.2082  10.7077  10.7077  11.1366  11.1366  12.7705  12.7705
    13.8983  13.8983

          k = 0.5556-0.3333 0.7778 (   171 PWs)   bands (ev):

     9.3939   9.3939  10.7604  10.7604  11.7336  11.7336  12.6417  12.6417
    14.5948  14.5948

          k =-0.2222 0.6667 0.0000 (   176 PWs)   bands (ev):

     9.3480   9.3480   9.9469   9.9469  11.6445  11.6445  13.7934  13.7934
    14.0293  14.0293

          k = 0.6667-0.2222 0.8889 (   180 PWs)   bands (ev):

     9.6886   9.6886  10.2326  10.2326  11.5057  11.5057  13.4973  13.4973
    14.7224  14.7224

          k = 0.5556-0.1111 0.7778 (   177 PWs)   bands (ev):

     9.9891   9.9891  10.4403  10.4403  11.3857  11.3857  13.1524  13.1524
    14.6481  14.6481

          k = 0.4444 0.0000 0.6667 (   175 PWs)   bands (ev):

    10.1843  10.1843  10.5174  10.5174  10.8376  10.8376  13.1472  13.1472
    14.0768  14.0768

          k = 0.7778-0.1111 1.0000 (   179 PWs)   bands (ev):

     9.2211   9.2211   9.5824   9.5824  12.8871  12.8871  14.2151  14.2151
    15.1216  15.1216

          k = 0.6667-0.0000 0.8889 (   177 PWs)   bands (ev):

     9.5779   9.5779  10.0384  10.0384  12.1224  12.1224  13.6572  13.6572
    15.0722  15.0722

          k = 0.5556-0.1111 1.0000 (   175 PWs)   bands (ev):

     9.9701   9.9701  10.5091  10.5091  11.1772  11.1772  13.3616  13.3616
    15.0371  15.0371

     highest occupied level (ev):    15.5997

!    total energy              =     -69.44970543 Ry
     estimated scf accuracy    <          4.2E-10 Ry

     The total energy is the sum of the following terms:
     one-electron contribution =      13.86346126 Ry
     hartree contribution      =       4.49970631 Ry
     xc contribution           =     -28.42346787 Ry
     ewald contribution        =     -59.38940513 Ry

     convergence has been achieved in   7 iterations

     negative rho (up, down):  2.943E-04 0.000E+00

     Forces acting on atoms (cartesian axes, Ry/au):

     atom    1 type  1   force =     0.00000000    0.00000000    0.00000000

     Total force =     0.000000     Total SCF correction =     0.000000


     Computing stress (Cartesian axis) and pressure


     negative rho (up, down):  2.943E-04 0.000E+00
          total   stress  (Ry/bohr**3)                   (kbar)     P=     -207.08
  -0.00140772   0.00000000   0.00000000         -207.08        0.00        0.00
   0.00000000  -0.00140772  -0.00000000            0.00     -207.08       -0.00
   0.00000000  -0.00000000  -0.00140772            0.00       -0.00     -207.08


     Writing all to output data dir ./platinum.save/ :
     XML data file, charge density, pseudopotentials, collected wavefunctions

     init_run     :      0.24s CPU      0.28s WALL (       1 calls)
     electrons    :      1.98s CPU      2.18s WALL (       1 calls)
     forces       :      0.04s CPU      0.04s WALL (       1 calls)
     stress       :      0.18s CPU      0.18s WALL (       1 calls)

     Called by init_run:
     wfcinit      :      0.05s CPU      0.08s WALL (       1 calls)
     potinit      :      0.01s CPU      0.01s WALL (       1 calls)
     hinit0       :      0.16s CPU      0.18s WALL (       1 calls)

     Called by electrons:
     c_bands      :      1.58s CPU      1.76s WALL (       8 calls)
     sum_band     :      0.31s CPU      0.33s WALL (       8 calls)
     v_of_rho     :      0.00s CPU      0.00s WALL (       8 calls)
     newd         :      0.10s CPU      0.10s WALL (       8 calls)
     mix_rho      :      0.00s CPU      0.00s WALL (       8 calls)

     Called by c_bands:
     init_us_2    :      0.03s CPU      0.03s WALL (     665 calls)
     cegterg      :      1.49s CPU      1.66s WALL (     280 calls)

     Called by *egterg:
     cdiaghg      :      0.10s CPU      0.11s WALL (    1415 calls)
     h_psi        :      0.84s CPU      0.96s WALL (    1485 calls)
     s_psi        :      0.14s CPU      0.16s WALL (    1485 calls)
     g_psi        :      0.01s CPU      0.02s WALL (    1170 calls)

     Called by h_psi:
     h_psi:calbec :      0.11s CPU      0.13s WALL (    1485 calls)
     vloc_psi     :      0.57s CPU      0.65s WALL (    1485 calls)
     add_vuspsi   :      0.14s CPU      0.16s WALL (    1485 calls)

     General routines
     calbec       :      0.16s CPU      0.17s WALL (    1940 calls)
     fft          :      0.02s CPU      0.03s WALL (      89 calls)
     ffts         :      0.00s CPU      0.00s WALL (      32 calls)
     fftw         :      0.42s CPU      0.49s WALL (   47872 calls)

     Parallel routines

     PWSCF        :      2.55s CPU      2.80s WALL


   This run was terminated on:  22: 2:18   4Nov2024            

=------------------------------------------------------------------------------=
   JOB DONE.
=------------------------------------------------------------------------------=
