
     Program PWSCF v.7.3.1 starts on  4Nov2024 at 22: 0:56 

     This program is part of the open-source Quantum ESPRESSO suite
     for quantum simulation of materials; please cite
         "P. Giannozzi et al., J. Phys.:Condens. Matter 21 395502 (2009);
         "P. Giannozzi et al., J. Phys.:Condens. Matter 29 465901 (2017);
         "P. Giannozzi et al., J. Chem. Phys. 152 154105 (2020);
          URL http://www.quantum-espresso.org", 
     in publications or presentations arising from this work. More details at
     http://www.quantum-espresso.org/quote

     Parallel version (MPI), running on     1 processors

     MPI processes distributed on     1 nodes
     11875 MiB available memory on the printing compute node when the environment starts

     Waiting for input...
     Reading input from standard input

     Current dimensions of program PWSCF are:
     Max number of different atomic species (ntypx) = 10
     Max number of k-points (npk) =  40000
     Max angular momentum in pseudopotentials (lmaxx) =  4

     Subspace diagonalization in iterative solution of the eigenvalue problem:
     a serial algorithm will be used


     G-vector sticks info
     --------------------
     sticks:   dense  smooth     PW     G-vecs:    dense   smooth      PW
     Sum         151     151     55                 1243     1243     283

     Using Slab Decomposition



     bravais-lattice index     =            2
     lattice parameter (alat)  =       7.3800  a.u.
     unit-cell volume          =     100.4868 (a.u.)^3
     number of atoms/cell      =            1
     number of atomic types    =            1
     number of electrons       =        10.00
     number of Kohn-Sham states=           10
     kinetic-energy cutoff     =      20.0000  Ry
     charge density cutoff     =      80.0000  Ry
     scf convergence threshold =      1.0E-08
     mixing beta               =       0.7000
     number of iterations used =            8  plain     mixing
     Exchange-correlation=  SLA  PZ   NOGX NOGC
                           (   1   1   0   0   0   0   0)
     Non magnetic calculation with spin-orbit


     celldm(1)=   7.380000  celldm(2)=   0.000000  celldm(3)=   0.000000
     celldm(4)=   0.000000  celldm(5)=   0.000000  celldm(6)=   0.000000

     crystal axes: (cart. coord. in units of alat)
               a(1) = (  -0.500000   0.000000   0.500000 )  
               a(2) = (   0.000000   0.500000   0.500000 )  
               a(3) = (  -0.500000   0.500000   0.000000 )  

     reciprocal axes: (cart. coord. in units 2 pi/alat)
               b(1) = ( -1.000000 -1.000000  1.000000 )  
               b(2) = (  1.000000  1.000000  1.000000 )  
               b(3) = ( -1.000000  1.000000 -1.000000 )  


     PseudoPot. # 1 for Pt read from file:
     /home/dashlander/Desktop/Sem7/CPD/Assignment_3/pseudo/Pt.rel-pz-n-rrkjus.UPF
     MD5 check sum: 4baafe8ec1942611396c7a5466f52249
     Pseudo is Ultrasoft + core correction, Zval = 10.0
     Generated by new atomic code, or converted to UPF format
     Using radial grid of 1277 points,  6 beta functions with: 
                l(1) =   2
                l(2) =   2
                l(3) =   2
                l(4) =   2
                l(5) =   1
                l(6) =   1
     Q(r) pseudized with 0 coefficients 


     atomic species   valence    mass     pseudopotential
     Pt               10.00   195.08400     Pt( 1.00)

     48 Sym. Ops., with inversion, found



   Cartesian axes

     site n.     atom                  positions (alat units)
         1        Pt     tau(   1) = (   0.0000000   0.0000000   0.0000000  )

     number of k points=    35
                       cart. coord. in units 2pi/alat
        k(    1) = (   0.0000000   0.0000000   0.0000000), wk =   0.0013717
        k(    2) = (  -0.1111111   0.1111111  -0.1111111), wk =   0.0109739
        k(    3) = (  -0.2222222   0.2222222  -0.2222222), wk =   0.0109739
        k(    4) = (  -0.3333333   0.3333333  -0.3333333), wk =   0.0109739
        k(    5) = (  -0.4444444   0.4444444  -0.4444444), wk =   0.0109739
        k(    6) = (   0.0000000   0.2222222   0.0000000), wk =   0.0082305
        k(    7) = (  -0.1111111   0.3333333  -0.1111111), wk =   0.0329218
        k(    8) = (  -0.2222222   0.4444444  -0.2222222), wk =   0.0329218
        k(    9) = (  -0.3333333   0.5555556  -0.3333333), wk =   0.0329218
        k(   10) = (   0.5555556  -0.3333333   0.5555556), wk =   0.0329218
        k(   11) = (   0.4444444  -0.2222222   0.4444444), wk =   0.0329218
        k(   12) = (   0.3333333  -0.1111111   0.3333333), wk =   0.0329218
        k(   13) = (   0.2222222  -0.0000000   0.2222222), wk =   0.0164609
        k(   14) = (   0.0000000   0.4444444   0.0000000), wk =   0.0082305
        k(   15) = (  -0.1111111   0.5555556  -0.1111111), wk =   0.0329218
        k(   16) = (  -0.2222222   0.6666667  -0.2222222), wk =   0.0329218
        k(   17) = (   0.6666667  -0.2222222   0.6666667), wk =   0.0329218
        k(   18) = (   0.5555556  -0.1111111   0.5555556), wk =   0.0329218
        k(   19) = (   0.4444444   0.0000000   0.4444444), wk =   0.0164609
        k(   20) = (   0.0000000   0.6666667   0.0000000), wk =   0.0082305
        k(   21) = (  -0.1111111   0.7777778  -0.1111111), wk =   0.0329218
        k(   22) = (   0.7777778  -0.1111111   0.7777778), wk =   0.0329218
        k(   23) = (   0.6666667  -0.0000000   0.6666667), wk =   0.0164609
        k(   24) = (   0.0000000   0.8888889   0.0000000), wk =   0.0082305
        k(   25) = (   0.8888889   0.0000000   0.8888889), wk =   0.0164609
        k(   26) = (  -0.2222222   0.4444444   0.0000000), wk =   0.0329218
        k(   27) = (  -0.3333333   0.5555556  -0.1111111), wk =   0.0658436
        k(   28) = (   0.5555556  -0.3333333   0.7777778), wk =   0.0658436
        k(   29) = (  -0.2222222   0.6666667   0.0000000), wk =   0.0329218
        k(   30) = (   0.6666667  -0.2222222   0.8888889), wk =   0.0658436
        k(   31) = (   0.5555556  -0.1111111   0.7777778), wk =   0.0658436
        k(   32) = (   0.4444444   0.0000000   0.6666667), wk =   0.0329218
        k(   33) = (   0.7777778  -0.1111111   1.0000000), wk =   0.0329218
        k(   34) = (   0.6666667  -0.0000000   0.8888889), wk =   0.0329218
        k(   35) = (   0.5555556  -0.1111111   1.0000000), wk =   0.0329218

     Dense  grid:     1243 G-vectors     FFT dimensions: (  15,  15,  15)

     Estimated max dynamical RAM per process >      12.01 MB

     Check: negative core charge=   -0.000031

     Initial potential from superposition of free atoms

     starting charge       9.9999, renormalised to      10.0000

     negative rho (up, down):  1.111E-04 0.000E+00
     Starting wfcs are   12 randomized atomic wfcs

     total cpu time spent up to now is        0.4 secs

     Self-consistent Calculation

     iteration #  1     ecut=    20.00 Ry     beta= 0.70
     Davidson diagonalization with overlap
     ethr =  1.00E-02,  avg # of iterations =  2.1

     Threshold (ethr) on eigenvalues was too large:
     Diagonalizing with lowered threshold

     Davidson diagonalization with overlap
     c_bands:  2 eigenvalues not converged
     ethr =  1.87E-05,  avg # of iterations =  7.9

     negative rho (up, down):  2.009E-04 0.000E+00

     total cpu time spent up to now is        0.9 secs

     total energy              =     -69.45497078 Ry
     estimated scf accuracy    <       0.00398885 Ry

     iteration #  2     ecut=    20.00 Ry     beta= 0.70
     Davidson diagonalization with overlap
     ethr =  3.99E-05,  avg # of iterations =  2.3

     negative rho (up, down):  2.261E-04 0.000E+00

     total cpu time spent up to now is        1.1 secs

     total energy              =     -69.45609752 Ry
     estimated scf accuracy    <       0.00036823 Ry

     iteration #  3     ecut=    20.00 Ry     beta= 0.70
     Davidson diagonalization with overlap
     ethr =  3.68E-06,  avg # of iterations =  2.1

     negative rho (up, down):  2.439E-04 0.000E+00

     total cpu time spent up to now is        1.3 secs

     total energy              =     -69.45616098 Ry
     estimated scf accuracy    <       0.00001205 Ry

     iteration #  4     ecut=    20.00 Ry     beta= 0.70
     Davidson diagonalization with overlap
     ethr =  1.21E-07,  avg # of iterations =  6.7

     negative rho (up, down):  2.439E-04 0.000E+00

     total cpu time spent up to now is        1.6 secs

     total energy              =     -69.45617902 Ry
     estimated scf accuracy    <       0.00000190 Ry

     iteration #  5     ecut=    20.00 Ry     beta= 0.70
     Davidson diagonalization with overlap
     ethr =  1.90E-08,  avg # of iterations =  3.9

     negative rho (up, down):  2.444E-04 0.000E+00

     total cpu time spent up to now is        1.8 secs

     total energy              =     -69.45617898 Ry
     estimated scf accuracy    <       0.00000052 Ry

     iteration #  6     ecut=    20.00 Ry     beta= 0.70
     Davidson diagonalization with overlap
     ethr =  5.20E-09,  avg # of iterations =  3.3

     negative rho (up, down):  2.445E-04 0.000E+00

     total cpu time spent up to now is        2.0 secs

     total energy              =     -69.45617920 Ry
     estimated scf accuracy    <       0.00000004 Ry

     iteration #  7     ecut=    20.00 Ry     beta= 0.70
     Davidson diagonalization with overlap
     ethr =  4.10E-10,  avg # of iterations =  3.7

     negative rho (up, down):  2.445E-04 0.000E+00

     total cpu time spent up to now is        2.3 secs

     End of self-consistent calculation

          k = 0.0000 0.0000 0.0000 (   169 PWs)   bands (ev):

     7.5045   7.5045  13.6850  13.6850  13.6850  13.6850  14.6752  14.6752
    16.5020  16.5020

          k =-0.1111 0.1111-0.1111 (   153 PWs)   bands (ev):

     7.9958   7.9958  13.6304  13.6304  13.7945  13.7945  14.7883  14.7883
    16.3350  16.3350

          k =-0.2222 0.2222-0.2222 (   150 PWs)   bands (ev):

     9.2398   9.2398  13.5292  13.5292  13.8830  13.8830  15.0730  15.0730
    16.2439  16.2439

          k =-0.3333 0.3333-0.3333 (   153 PWs)   bands (ev):

    10.2760  10.2760  13.7141  13.7141  14.4234  14.4234  14.8379  14.8379
    17.0081  17.0081

          k =-0.4444 0.4444-0.4444 (   147 PWs)   bands (ev):

    10.4662  10.4662  13.5227  13.5227  14.5356  14.5356  16.6423  16.6423
    17.7341  17.7341

          k = 0.0000 0.2222 0.0000 (   161 PWs)   bands (ev):

     8.1600   8.1600  13.4614  13.4614  13.9559  13.9559  14.8693  14.8693
    16.1094  16.1094

          k =-0.1111 0.3333-0.1111 (   154 PWs)   bands (ev):

     9.1850   9.1850  13.1738  13.1738  14.1014  14.1014  15.2302  15.2302
    15.9368  15.9368

          k =-0.2222 0.4444-0.2222 (   151 PWs)   bands (ev):

    10.4329  10.4329  13.3576  13.3576  13.8654  13.8654  15.0865  15.0865
    16.8638  16.8638

          k =-0.3333 0.5556-0.3333 (   151 PWs)   bands (ev):

    10.8314  10.8314  13.5101  13.5101  14.5297  14.5297  15.0520  15.0520
    17.9981  17.9981

          k = 0.5556-0.3333 0.5556 (   158 PWs)   bands (ev):

    10.8557  10.8557  13.4326  13.4326  14.5462  14.5462  15.7375  15.7375
    17.9320  17.9320

          k = 0.4444-0.2222 0.4444 (   151 PWs)   bands (ev):

    10.8228  10.8228  13.5999  13.5999  14.4445  14.4445  14.8077  14.8077
    17.0523  17.0523

          k = 0.3333-0.1111 0.3333 (   150 PWs)   bands (ev):

    10.0938  10.0938  13.2901  13.2901  13.9615  13.9615  15.1656  15.1656
    16.0414  16.0414

          k = 0.2222-0.0000 0.2222 (   157 PWs)   bands (ev):

     8.7611   8.7611  13.4006  13.4006  13.9732  13.9732  15.0493  15.0493
    15.9778  15.9778

          k = 0.0000 0.4444 0.0000 (   149 PWs)   bands (ev):

     9.8389   9.8389  12.6641  12.6641  14.3892  14.3892  15.7674  15.7674
    15.8033  15.8033

          k =-0.1111 0.5556-0.1111 (   153 PWs)   bands (ev):

    10.8457  10.8457  12.3596  12.3596  14.2085  14.2085  15.9415  15.9415
    16.8837  16.8837

          k =-0.2222 0.6667-0.2222 (   149 PWs)   bands (ev):

    11.4057  11.4057  12.7290  12.7290  13.9888  13.9888  15.7114  15.7114
    18.1245  18.1245

          k = 0.6667-0.2222 0.6667 (   155 PWs)   bands (ev):

    11.6115  11.6115  12.9807  12.9807  14.3112  14.3112  15.4690  15.4690
    18.0077  18.0077

          k = 0.5556-0.1111 0.5556 (   155 PWs)   bands (ev):

    11.8540  11.8540  13.1656  13.1656  13.9489  13.9489  15.2860  15.2860
    17.0896  17.0896

          k = 0.4444 0.0000 0.4444 (   152 PWs)   bands (ev):

    11.4385  11.4385  13.0343  13.0343  13.7217  13.7217  15.3322  15.3322
    16.1160  16.1160

          k = 0.0000 0.6667 0.0000 (   153 PWs)   bands (ev):

    10.9532  10.9532  11.7861  11.7861  15.4524  15.4524  16.9790  16.9790
    17.0332  17.0332

          k =-0.1111 0.7778-0.1111 (   154 PWs)   bands (ev):

    11.1136  11.1136  11.6701  11.6701  15.6617  15.6617  17.0618  17.0618
    18.2077  18.2077

          k = 0.7778-0.1111 0.7778 (   152 PWs)   bands (ev):

    11.4229  11.4229  12.1531  12.1531  15.0540  15.0540  16.6519  16.6519
    18.2250  18.2250

          k = 0.6667-0.0000 0.6667 (   150 PWs)   bands (ev):

    11.9293  11.9293  12.8463  12.8463  14.1258  14.1258  16.0562  16.0562
    17.5414  17.5414

          k = 0.0000 0.8889 0.0000 (   150 PWs)   bands (ev):

    10.7393  10.7393  11.2587  11.2587  17.7366  17.7366  17.8611  17.8611
    18.8552  18.8552

          k = 0.8889 0.0000 0.8889 (   150 PWs)   bands (ev):

    10.9018  10.9018  11.4070  11.4070  16.8288  16.8288  17.6027  17.6027
    18.6351  18.6351

          k =-0.2222 0.4444 0.0000 (   150 PWs)   bands (ev):

    10.3181  10.3181  12.8244  12.8244  14.0132  14.0132  15.6715  15.6715
    15.9063  15.9063

          k =-0.3333 0.5556-0.1111 (   149 PWs)   bands (ev):

    11.3774  11.3774  13.0742  13.0742  13.5690  13.5690  15.4800  15.4800
    16.9121  16.9121

          k = 0.5556-0.3333 0.7778 (   152 PWs)   bands (ev):

    11.5217  11.5217  13.1178  13.1178  14.2640  14.2640  15.2848  15.2848
    17.8084  17.8084

          k =-0.2222 0.6667 0.0000 (   150 PWs)   bands (ev):

    11.4697  11.4697  12.1081  12.1081  14.2079  14.2079  16.7947  16.7947
    17.0759  17.0759

          k = 0.6667-0.2222 0.8889 (   153 PWs)   bands (ev):

    11.8141  11.8141  12.4539  12.4539  13.9997  13.9997  16.3985  16.3985
    17.9654  17.9654

          k = 0.5556-0.1111 0.7778 (   149 PWs)   bands (ev):

    12.1882  12.1882  12.7080  12.7080  13.8228  13.8228  15.9597  15.9597
    17.8699  17.8699

          k = 0.4444 0.0000 0.6667 (   151 PWs)   bands (ev):

    12.5023  12.5023  12.8436  12.8436  13.1003  13.1003  15.9673  15.9673
    17.1313  17.1313

          k = 0.7778-0.1111 1.0000 (   153 PWs)   bands (ev):

    11.2154  11.2154  11.6613  11.6613  15.6679  15.6679  17.3460  17.3460
    18.4362  18.4362

          k = 0.6667-0.0000 0.8889 (   151 PWs)   bands (ev):

    11.6410  11.6410  12.2236  12.2236  14.7243  14.7243  16.6133  16.6133
    18.3994  18.3994

          k = 0.5556-0.1111 1.0000 (   151 PWs)   bands (ev):

    12.1155  12.1155  12.8253  12.8253  13.5597  13.5597  16.2155  16.2155
    18.3689  18.3689

     highest occupied level (ev):    18.8552

!    total energy              =     -69.45617922 Ry
     estimated scf accuracy    <          2.2E-09 Ry

     The total energy is the sum of the following terms:
     one-electron contribution =      17.54022215 Ry
     hartree contribution      =       3.69763692 Ry
     xc contribution           =     -28.56853591 Ry
     ewald contribution        =     -62.12550238 Ry

     convergence has been achieved in   7 iterations

     negative rho (up, down):  2.445E-04 0.000E+00

     Forces acting on atoms (cartesian axes, Ry/au):

     atom    1 type  1   force =     0.00000000    0.00000000    0.00000000

     Total force =     0.000000     Total SCF correction =     0.000000


     Computing stress (Cartesian axis) and pressure


     negative rho (up, down):  2.445E-04 0.000E+00
          total   stress  (Ry/bohr**3)                   (kbar)     P=      108.15
   0.00073522  -0.00000000  -0.00000000          108.15       -0.00       -0.00
  -0.00000000   0.00073522   0.00000000           -0.00      108.15        0.00
  -0.00000000   0.00000000   0.00073522           -0.00        0.00      108.15


     Writing all to output data dir ./platinum.save/ :
     XML data file, charge density, pseudopotentials, collected wavefunctions

     init_run     :      0.23s CPU      0.27s WALL (       1 calls)
     electrons    :      1.62s CPU      1.89s WALL (       1 calls)
     forces       :      0.04s CPU      0.04s WALL (       1 calls)
     stress       :      0.15s CPU      0.15s WALL (       1 calls)

     Called by init_run:
     wfcinit      :      0.05s CPU      0.07s WALL (       1 calls)
     potinit      :      0.01s CPU      0.01s WALL (       1 calls)
     hinit0       :      0.15s CPU      0.17s WALL (       1 calls)

     Called by electrons:
     c_bands      :      1.28s CPU      1.51s WALL (       8 calls)
     sum_band     :      0.26s CPU      0.29s WALL (       8 calls)
     v_of_rho     :      0.00s CPU      0.00s WALL (       8 calls)
     newd         :      0.09s CPU      0.09s WALL (       8 calls)
     mix_rho      :      0.00s CPU      0.00s WALL (       8 calls)

     Called by c_bands:
     init_us_2    :      0.02s CPU      0.02s WALL (     665 calls)
     cegterg      :      1.21s CPU      1.43s WALL (     280 calls)

     Called by *egterg:
     cdiaghg      :      0.08s CPU      0.09s WALL (    1365 calls)
     h_psi        :      0.71s CPU      0.85s WALL (    1435 calls)
     s_psi        :      0.11s CPU      0.13s WALL (    1435 calls)
     g_psi        :      0.01s CPU      0.01s WALL (    1120 calls)

     Called by h_psi:
     h_psi:calbec :      0.09s CPU      0.10s WALL (    1435 calls)
     vloc_psi     :      0.50s CPU      0.60s WALL (    1435 calls)
     add_vuspsi   :      0.11s CPU      0.13s WALL (    1435 calls)

     General routines
     calbec       :      0.12s CPU      0.14s WALL (    1890 calls)
     fft          :      0.01s CPU      0.03s WALL (      89 calls)
     ffts         :      0.00s CPU      0.00s WALL (      32 calls)
     fftw         :      0.37s CPU      0.45s WALL (   46636 calls)

     Parallel routines

     PWSCF        :      2.14s CPU      2.45s WALL


   This run was terminated on:  22: 0:58   4Nov2024            

=------------------------------------------------------------------------------=
   JOB DONE.
=------------------------------------------------------------------------------=
