
     Program PWSCF v.7.3.1 starts on  4Nov2024 at 13:51:56 

     This program is part of the open-source Quantum ESPRESSO suite
     for quantum simulation of materials; please cite
         "P. Giannozzi et al., J. Phys.:Condens. Matter 21 395502 (2009);
         "P. Giannozzi et al., J. Phys.:Condens. Matter 29 465901 (2017);
         "P. Giannozzi et al., J. Chem. Phys. 152 154105 (2020);
          URL http://www.quantum-espresso.org", 
     in publications or presentations arising from this work. More details at
     http://www.quantum-espresso.org/quote

     Parallel version (MPI), running on     1 processors

     MPI processes distributed on     1 nodes
     14403 MiB available memory on the printing compute node when the environment starts

     Waiting for input...
     Reading input from standard input

     Current dimensions of program PWSCF are:
     Max number of different atomic species (ntypx) = 10
     Max number of k-points (npk) =  40000
     Max angular momentum in pseudopotentials (lmaxx) =  4

     Subspace diagonalization in iterative solution of the eigenvalue problem:
     a serial algorithm will be used


     G-vector sticks info
     --------------------
     sticks:   dense  smooth     PW     G-vecs:    dense   smooth      PW
     Sum         151     151     61                 1243     1243     331

     Using Slab Decomposition



     bravais-lattice index     =            2
     lattice parameter (alat)  =       7.3700  a.u.
     unit-cell volume          =     100.0789 (a.u.)^3
     number of atoms/cell      =            1
     number of atomic types    =            1
     number of electrons       =        10.00
     number of Kohn-Sham states=           10
     kinetic-energy cutoff     =      20.0000  Ry
     charge density cutoff     =      80.0000  Ry
     scf convergence threshold =      1.0E-08
     mixing beta               =       0.7000
     number of iterations used =            8  plain     mixing
     Exchange-correlation=  SLA  PZ   NOGX NOGC
                           (   1   1   0   0   0   0   0)
     Non magnetic calculation with spin-orbit


     celldm(1)=   7.370000  celldm(2)=   0.000000  celldm(3)=   0.000000
     celldm(4)=   0.000000  celldm(5)=   0.000000  celldm(6)=   0.000000

     crystal axes: (cart. coord. in units of alat)
               a(1) = (  -0.500000   0.000000   0.500000 )  
               a(2) = (   0.000000   0.500000   0.500000 )  
               a(3) = (  -0.500000   0.500000   0.000000 )  

     reciprocal axes: (cart. coord. in units 2 pi/alat)
               b(1) = ( -1.000000 -1.000000  1.000000 )  
               b(2) = (  1.000000  1.000000  1.000000 )  
               b(3) = ( -1.000000  1.000000 -1.000000 )  


     PseudoPot. # 1 for Pt read from file:
     /home/dashlander/Desktop/Sem7/CPD/Assignment_3/pseudo/Pt.rel-pz-n-rrkjus.UPF
     MD5 check sum: 4baafe8ec1942611396c7a5466f52249
     Pseudo is Ultrasoft + core correction, Zval = 10.0
     Generated by new atomic code, or converted to UPF format
     Using radial grid of 1277 points,  6 beta functions with: 
                l(1) =   2
                l(2) =   2
                l(3) =   2
                l(4) =   2
                l(5) =   1
                l(6) =   1
     Q(r) pseudized with 0 coefficients 


     atomic species   valence    mass     pseudopotential
     Pt               10.00   195.08400     Pt( 1.00)

     48 Sym. Ops., with inversion, found



   Cartesian axes

     site n.     atom                  positions (alat units)
         1        Pt     tau(   1) = (   0.0000000   0.0000000   0.0000000  )

     number of k points=    60
                       cart. coord. in units 2pi/alat
        k(    1) = (  -0.0625000   0.0625000   0.0625000), wk =   0.0039062
        k(    2) = (  -0.1875000   0.1875000  -0.0625000), wk =   0.0117188
        k(    3) = (  -0.3125000   0.3125000  -0.1875000), wk =   0.0117188
        k(    4) = (  -0.4375000   0.4375000  -0.3125000), wk =   0.0117188
        k(    5) = (   0.4375000  -0.4375000   0.5625000), wk =   0.0117188
        k(    6) = (   0.3125000  -0.3125000   0.4375000), wk =   0.0117188
        k(    7) = (   0.1875000  -0.1875000   0.3125000), wk =   0.0117188
        k(    8) = (   0.0625000  -0.0625000   0.1875000), wk =   0.0117188
        k(    9) = (  -0.0625000   0.3125000   0.0625000), wk =   0.0117188
        k(   10) = (  -0.1875000   0.4375000  -0.0625000), wk =   0.0234375
        k(   11) = (  -0.3125000   0.5625000  -0.1875000), wk =   0.0234375
        k(   12) = (   0.5625000  -0.3125000   0.6875000), wk =   0.0234375
        k(   13) = (   0.4375000  -0.1875000   0.5625000), wk =   0.0234375
        k(   14) = (   0.3125000  -0.0625000   0.4375000), wk =   0.0234375
        k(   15) = (   0.1875000   0.0625000   0.3125000), wk =   0.0234375
        k(   16) = (  -0.0625000   0.5625000   0.0625000), wk =   0.0117188
        k(   17) = (  -0.1875000   0.6875000  -0.0625000), wk =   0.0234375
        k(   18) = (   0.6875000  -0.1875000   0.8125000), wk =   0.0234375
        k(   19) = (   0.5625000  -0.0625000   0.6875000), wk =   0.0234375
        k(   20) = (   0.4375000   0.0625000   0.5625000), wk =   0.0234375
        k(   21) = (   0.3125000   0.1875000   0.4375000), wk =   0.0234375
        k(   22) = (  -0.0625000   0.8125000   0.0625000), wk =   0.0117188
        k(   23) = (   0.8125000  -0.0625000   0.9375000), wk =   0.0234375
        k(   24) = (   0.6875000   0.0625000   0.8125000), wk =   0.0234375
        k(   25) = (   0.5625000   0.1875000   0.6875000), wk =   0.0234375
        k(   26) = (   0.4375000   0.3125000   0.5625000), wk =   0.0234375
        k(   27) = (  -0.0625000  -0.9375000   0.0625000), wk =   0.0117188
        k(   28) = (  -0.1875000  -0.8125000  -0.0625000), wk =   0.0234375
        k(   29) = (  -0.3125000  -0.6875000  -0.1875000), wk =   0.0234375
        k(   30) = (  -0.0625000  -0.6875000   0.0625000), wk =   0.0117188
        k(   31) = (  -0.1875000  -0.5625000  -0.0625000), wk =   0.0234375
        k(   32) = (  -0.0625000  -0.4375000   0.0625000), wk =   0.0117188
        k(   33) = (  -0.1875000   0.1875000   0.1875000), wk =   0.0039062
        k(   34) = (  -0.3125000   0.3125000   0.0625000), wk =   0.0117188
        k(   35) = (  -0.4375000   0.4375000  -0.0625000), wk =   0.0117188
        k(   36) = (   0.4375000  -0.4375000   0.8125000), wk =   0.0117188
        k(   37) = (   0.3125000  -0.3125000   0.6875000), wk =   0.0117188
        k(   38) = (   0.1875000  -0.1875000   0.5625000), wk =   0.0117188
        k(   39) = (  -0.1875000   0.4375000   0.1875000), wk =   0.0117188
        k(   40) = (  -0.3125000   0.5625000   0.0625000), wk =   0.0234375
        k(   41) = (   0.5625000  -0.3125000   0.9375000), wk =   0.0234375
        k(   42) = (   0.4375000  -0.1875000   0.8125000), wk =   0.0234375
        k(   43) = (   0.3125000  -0.0625000   0.6875000), wk =   0.0234375
        k(   44) = (  -0.1875000   0.6875000   0.1875000), wk =   0.0117188
        k(   45) = (   0.6875000  -0.1875000   1.0625000), wk =   0.0234375
        k(   46) = (   0.5625000  -0.0625000   0.9375000), wk =   0.0234375
        k(   47) = (   0.4375000   0.0625000   0.8125000), wk =   0.0234375
        k(   48) = (  -0.1875000  -1.0625000   0.1875000), wk =   0.0117188
        k(   49) = (  -0.3125000  -0.9375000   0.0625000), wk =   0.0234375
        k(   50) = (  -0.1875000  -0.8125000   0.1875000), wk =   0.0117188
        k(   51) = (  -0.3125000   0.3125000   0.3125000), wk =   0.0039062
        k(   52) = (  -0.4375000   0.4375000   0.1875000), wk =   0.0117188
        k(   53) = (   0.4375000  -0.4375000   1.0625000), wk =   0.0117188
        k(   54) = (   0.3125000  -0.3125000   0.9375000), wk =   0.0117188
        k(   55) = (  -0.3125000   0.5625000   0.3125000), wk =   0.0117188
        k(   56) = (   0.5625000  -0.3125000   1.1875000), wk =   0.0234375
        k(   57) = (   0.4375000  -0.1875000   1.0625000), wk =   0.0234375
        k(   58) = (  -0.3125000  -1.1875000   0.3125000), wk =   0.0117188
        k(   59) = (  -0.4375000   0.4375000   0.4375000), wk =   0.0039062
        k(   60) = (   0.4375000  -0.4375000   1.3125000), wk =   0.0117188

     Dense  grid:     1243 G-vectors     FFT dimensions: (  15,  15,  15)

     Estimated max dynamical RAM per process >      13.15 MB

     Check: negative core charge=   -0.000029

     Initial potential from superposition of free atoms

     starting charge       9.9999, renormalised to      10.0000

     negative rho (up, down):  1.043E-04 0.000E+00
     Starting wfcs are   12 randomized atomic wfcs

     total cpu time spent up to now is        0.4 secs

     Self-consistent Calculation

     iteration #  1     ecut=    20.00 Ry     beta= 0.70
     Davidson diagonalization with overlap
     ethr =  1.00E-02,  avg # of iterations =  2.2

     Threshold (ethr) on eigenvalues was too large:
     Diagonalizing with lowered threshold

     Davidson diagonalization with overlap
     c_bands:  2 eigenvalues not converged
     ethr =  1.35E-05,  avg # of iterations =  8.9

     negative rho (up, down):  1.944E-04 0.000E+00

     total cpu time spent up to now is        1.5 secs

     total energy              =     -69.45529058 Ry
     estimated scf accuracy    <       0.00409700 Ry

     iteration #  2     ecut=    20.00 Ry     beta= 0.70
     Davidson diagonalization with overlap
     ethr =  4.10E-05,  avg # of iterations =  2.2

     negative rho (up, down):  2.189E-04 0.000E+00

     total cpu time spent up to now is        1.9 secs

     total energy              =     -69.45638644 Ry
     estimated scf accuracy    <       0.00049941 Ry

     iteration #  3     ecut=    20.00 Ry     beta= 0.70
     Davidson diagonalization with overlap
     ethr =  4.99E-06,  avg # of iterations =  2.2

     negative rho (up, down):  2.375E-04 0.000E+00

     total cpu time spent up to now is        2.2 secs

     total energy              =     -69.45646979 Ry
     estimated scf accuracy    <       0.00001510 Ry

     iteration #  4     ecut=    20.00 Ry     beta= 0.70
     Davidson diagonalization with overlap
     ethr =  1.51E-07,  avg # of iterations =  6.1

     negative rho (up, down):  2.376E-04 0.000E+00

     total cpu time spent up to now is        2.7 secs

     total energy              =     -69.45648980 Ry
     estimated scf accuracy    <       0.00000310 Ry

     iteration #  5     ecut=    20.00 Ry     beta= 0.70
     Davidson diagonalization with overlap
     ethr =  3.10E-08,  avg # of iterations =  3.3

     negative rho (up, down):  2.381E-04 0.000E+00

     total cpu time spent up to now is        3.0 secs

     total energy              =     -69.45649015 Ry
     estimated scf accuracy    <       0.00000048 Ry

     iteration #  6     ecut=    20.00 Ry     beta= 0.70
     Davidson diagonalization with overlap
     ethr =  4.84E-09,  avg # of iterations =  4.2

     negative rho (up, down):  2.382E-04 0.000E+00

     total cpu time spent up to now is        3.4 secs

     total energy              =     -69.45649039 Ry
     estimated scf accuracy    <       0.00000001 Ry

     iteration #  7     ecut=    20.00 Ry     beta= 0.70
     Davidson diagonalization with overlap
     ethr =  1.02E-10,  avg # of iterations =  5.8

     negative rho (up, down):  2.383E-04 0.000E+00

     total cpu time spent up to now is        3.9 secs

     End of self-consistent calculation

          k =-0.0625 0.0625 0.0625 (   159 PWs)   bands (ev):

     7.7241   7.7241  13.7622  13.7622  13.8142  13.8142  14.7906  14.7906
    16.5468  16.5468

          k =-0.1875 0.1875-0.0625 (   156 PWs)   bands (ev):

     8.5252   8.5252  13.5865  13.5865  13.9992  13.9992  15.0325  15.0325
    16.2249  16.2249

          k =-0.3125 0.3125-0.1875 (   151 PWs)   bands (ev):

    10.0061  10.0061  13.6292  13.6292  13.9943  13.9943  15.1350  15.1350
    16.4572  16.4572

          k =-0.4375 0.4375-0.3125 (   151 PWs)   bands (ev):

    10.6426  10.6426  13.6799  13.6799  14.7112  14.7112  15.4233  15.4233
    17.5587  17.5587

          k = 0.4375-0.4375 0.5625 (   154 PWs)   bands (ev):

    10.6605  10.6605  13.5796  13.5796  14.5869  14.5869  16.4771  16.4771
    18.1620  18.1620

          k = 0.3125-0.3125 0.4375 (   151 PWs)   bands (ev):

    10.5570  10.5570  13.7595  13.7595  14.5672  14.5672  14.9150  14.9150
    17.4135  17.4135

          k = 0.1875-0.1875 0.3125 (   150 PWs)   bands (ev):

     9.5228   9.5228  13.4718  13.4718  14.0463  14.0463  15.2157  15.2157
    16.2877  16.2877

          k = 0.0625-0.0625 0.1875 (   158 PWs)   bands (ev):

     8.1365   8.1365  13.6315  13.6315  13.9675  13.9675  14.9134  14.9134
    16.3114  16.3114

          k =-0.0625 0.3125 0.0625 (   157 PWs)   bands (ev):

     8.9155   8.9155  13.2862  13.2862  14.2279  14.2279  15.2549  15.2549
    15.9764  15.9764

          k =-0.1875 0.4375-0.0625 (   152 PWs)   bands (ev):

    10.2169  10.2169  12.9229  12.9229  14.1599  14.1599  15.6145  15.6145
    16.1912  16.1912

          k =-0.3125 0.5625-0.1875 (   149 PWs)   bands (ev):

    11.2254  11.2254  13.4227  13.4227  13.7839  13.7839  15.3303  15.3303
    17.5732  17.5732

          k = 0.5625-0.3125 0.6875 (   154 PWs)   bands (ev):

    11.3310  11.3310  13.3072  13.3072  14.6683  14.6683  15.3153  15.3153
    18.1141  18.1141

          k = 0.4375-0.1875 0.5625 (   151 PWs)   bands (ev):

    11.3717  11.3717  13.4650  13.4650  14.2468  14.2468  15.1532  15.1532
    17.4090  17.4090

          k = 0.3125-0.0625 0.4375 (   149 PWs)   bands (ev):

    10.7341  10.7341  13.1077  13.1077  13.9711  13.9711  15.4721  15.4721
    16.1503  16.1503

          k = 0.1875 0.0625 0.3125 (   155 PWs)   bands (ev):

     9.2584   9.2584  13.3270  13.3270  14.1419  14.1419  15.2942  15.2942
    16.0038  16.0038

          k =-0.0625 0.5625 0.0625 (   151 PWs)   bands (ev):

    10.8149  10.8149  12.2933  12.2933  14.5754  14.5754  16.3087  16.3087
    16.7098  16.7098

          k =-0.1875 0.6875-0.0625 (   150 PWs)   bands (ev):

    11.4067  11.4067  12.0822  12.0822  14.6434  14.6434  16.7719  16.7719
    17.6743  17.6743

          k = 0.6875-0.1875 0.8125 (   151 PWs)   bands (ev):

    11.7366  11.7366  12.5828  12.5828  14.3965  14.3965  16.3165  16.3165
    18.2555  18.2555

          k = 0.5625-0.0625 0.6875 (   152 PWs)   bands (ev):

    12.2476  12.2476  12.9858  12.9858  13.8558  13.8558  15.9118  15.9118
    17.5549  17.5549

          k = 0.4375 0.0625 0.5625 (   151 PWs)   bands (ev):

    11.9541  11.9541  13.2214  13.2214  13.5285  13.5285  15.5656  15.5656
    16.7992  16.7992

          k = 0.3125 0.1875 0.4375 (   150 PWs)   bands (ev):

    10.6203  10.6203  13.6270  13.6270  13.9456  13.9456  15.0953  15.0953
    16.8422  16.8422

          k =-0.0625 0.8125 0.0625 (   152 PWs)   bands (ev):

    10.9835  10.9835  11.5184  11.5184  16.7003  16.7003  17.6245  17.6245
    18.3431  18.3431

          k = 0.8125-0.0625 0.9375 (   149 PWs)   bands (ev):

    11.1268  11.1268  11.6161  11.6161  16.3086  16.3086  17.5463  17.5463
    18.6928  18.6928

          k = 0.6875 0.0625 0.8125 (   152 PWs)   bands (ev):

    11.6916  11.6916  12.4187  12.4187  14.7931  14.7931  16.6409  16.6409
    18.2345  18.2345

          k = 0.5625 0.1875 0.6875 (   152 PWs)   bands (ev):

    11.8505  11.8505  13.0380  13.0380  14.3335  14.3335  15.5365  15.5365
    17.8827  17.8827

          k = 0.4375 0.3125 0.5625 (   153 PWs)   bands (ev):

    10.9055  10.9055  13.5595  13.5595  14.6597  14.6597  15.5135  15.5135
    17.9720  17.9720

          k =-0.0625-0.9375 0.0625 (   150 PWs)   bands (ev):

    10.8392  10.8392  11.3466  11.3466  17.5180  17.5180  17.9264  17.9264
    18.8575  18.8575

          k =-0.1875-0.8125-0.0625 (   149 PWs)   bands (ev):

    11.2767  11.2767  11.7771  11.7771  15.5802  15.5802  17.3381  17.3381
    18.2978  18.2978

          k =-0.3125-0.6875-0.1875 (   150 PWs)   bands (ev):

    11.6309  11.6309  12.9527  12.9527  13.9606  13.9606  15.8011  15.8011
    18.1097  18.1097

          k =-0.0625-0.6875 0.0625 (   151 PWs)   bands (ev):

    11.1101  11.1101  11.8458  11.8458  15.4406  15.4406  17.0322  17.0322
    17.5531  17.5531

          k =-0.1875-0.5625-0.0625 (   149 PWs)   bands (ev):

    11.0936  11.0936  12.4833  12.4833  14.1234  14.1234  16.1083  16.1083
    16.8817  16.8817

          k =-0.0625-0.4375 0.0625 (   152 PWs)   bands (ev):

     9.9263   9.9263  12.8025  12.8025  14.3868  14.3868  15.7389  15.7389
    16.0284  16.0284

          k =-0.1875 0.1875 0.1875 (   153 PWs)   bands (ev):

     8.8729   8.8729  13.6100  13.6100  13.9738  13.9738  15.1089  15.1089
    16.2955  16.2955

          k =-0.3125 0.3125 0.0625 (   150 PWs)   bands (ev):

     9.8996   9.8996  13.2911  13.2911  14.0976  14.0976  15.3719  15.3719
    15.9065  15.9065

          k =-0.4375 0.4375-0.0625 (   149 PWs)   bands (ev):

    11.3552  11.3552  13.2373  13.2373  13.8459  13.8459  15.3229  15.3229
    16.3139  16.3139

          k = 0.4375-0.4375 0.8125 (   153 PWs)   bands (ev):

    11.5736  11.5736  13.3087  13.3087  14.5193  14.5193  15.2006  15.2006
    17.5582  17.5582

          k = 0.3125-0.3125 0.6875 (   151 PWs)   bands (ev):

    11.4279  11.4279  13.2341  13.2341  14.3527  14.3527  15.3691  15.3691
    18.2867  18.2867

          k = 0.1875-0.1875 0.5625 (   150 PWs)   bands (ev):

    11.1320  11.1320  12.8524  12.8524  13.9483  13.9483  15.6195  15.6195
    17.5936  17.5936

          k =-0.1875 0.4375 0.1875 (   150 PWs)   bands (ev):

    10.3612  10.3612  13.1950  13.1950  14.0327  14.0327  15.3048  15.3048
    16.7170  16.7170

          k =-0.3125 0.5625 0.0625 (   149 PWs)   bands (ev):

    11.5468  11.5468  12.8475  12.8475  13.6685  13.6685  15.8718  15.8718
    16.7823  16.7823

          k = 0.5625-0.3125 0.9375 (   150 PWs)   bands (ev):

    12.4225  12.4225  12.9172  12.9172  13.3480  13.3480  16.0569  16.0569
    17.4523  17.4523

          k = 0.4375-0.1875 0.8125 (   151 PWs)   bands (ev):

    12.1872  12.1872  12.7651  12.7651  13.9556  13.9556  15.9855  15.9855
    18.0569  18.0569

          k = 0.3125-0.0625 0.6875 (   149 PWs)   bands (ev):

    11.9150  11.9150  12.5421  12.5421  13.7714  13.7714  16.4633  16.4633
    17.5162  17.5162

          k =-0.1875 0.6875 0.1875 (   149 PWs)   bands (ev):

    11.4664  11.4664  12.4490  12.4490  14.3422  14.3422  16.1487  16.1487
    18.2289  18.2289

          k = 0.6875-0.1875 1.0625 (   153 PWs)   bands (ev):

    11.7935  11.7935  12.2675  12.2675  14.4088  14.4088  16.8634  16.8634
    18.1605  18.1605

          k = 0.5625-0.0625 0.9375 (   151 PWs)   bands (ev):

    12.1244  12.1244  12.8316  12.8316  13.8230  13.8230  16.2948  16.2948
    18.5754  18.5754

          k = 0.4375 0.0625 0.8125 (   153 PWs)   bands (ev):

    12.3492  12.3492  12.8174  12.8174  13.5288  13.5288  16.3218  16.3218
    18.1039  18.1039

          k =-0.1875-1.0625 0.1875 (   148 PWs)   bands (ev):

    11.3077  11.3077  11.9270  11.9270  15.7374  15.7374  17.1537  17.1537
    18.4496  18.4496

          k =-0.3125-0.9375 0.0625 (   153 PWs)   bands (ev):

    11.6289  11.6289  12.1317  12.1317  14.9801  14.9801  16.8968  16.8968
    18.6069  18.6069

          k =-0.1875-0.8125 0.1875 (   148 PWs)   bands (ev):

    11.4170  11.4170  12.1046  12.1046  15.1272  15.1272  16.7341  16.7341
    18.4433  18.4433

          k =-0.3125 0.3125 0.3125 (   153 PWs)   bands (ev):

    10.2250  10.2250  13.8472  13.8472  14.2111  14.2111  14.9870  14.9870
    16.9378  16.9378

          k =-0.4375 0.4375 0.1875 (   151 PWs)   bands (ev):

    10.9633  10.9633  13.6822  13.6822  14.2330  14.2330  14.9577  14.9577
    16.9425  16.9425

          k = 0.4375-0.4375 1.0625 (   153 PWs)   bands (ev):

    12.1580  12.1580  13.2084  13.2084  13.7720  13.7720  15.5419  15.5419
    17.0711  17.0711

          k = 0.3125-0.3125 0.9375 (   150 PWs)   bands (ev):

    11.8934  11.8934  12.8140  12.8140  14.3862  14.3862  16.2219  16.2219
    17.8359  17.8359

          k =-0.3125 0.5625 0.3125 (   151 PWs)   bands (ev):

    10.9803  10.9803  13.5842  13.5842  14.4457  14.4457  15.0709  15.0709
    18.0986  18.0986

          k = 0.5625-0.3125 1.1875 (   151 PWs)   bands (ev):

    11.8178  11.8178  13.0761  13.0761  14.0930  14.0930  15.5726  15.5726
    17.8706  17.8706

          k = 0.4375-0.1875 1.0625 (   151 PWs)   bands (ev):

    12.2339  12.2339  12.8067  12.8067  13.8570  13.8570  16.2111  16.2111
    18.1239  18.1239

          k =-0.3125-1.1875 0.3125 (   154 PWs)   bands (ev):

    11.7678  11.7678  12.9243  12.9243  14.3505  14.3505  15.8108  15.8108
    18.1202  18.1202

          k =-0.4375 0.4375 0.4375 (   147 PWs)   bands (ev):

    10.5320  10.5320  13.6181  13.6181  14.6329  14.6329  16.6035  16.6035
    17.8246  17.8246

          k = 0.4375-0.4375 1.3125 (   158 PWs)   bands (ev):

    11.0218  11.0218  13.4841  13.4841  14.6636  14.6636  15.6497  15.6497
    18.0126  18.0126

     highest occupied level (ev):    18.8575

!    total energy              =     -69.45649040 Ry
     estimated scf accuracy    <          3.0E-09 Ry

     The total energy is the sum of the following terms:
     one-electron contribution =      17.64928425 Ry
     hartree contribution      =       3.67999799 Ry
     xc contribution           =     -28.57597515 Ry
     ewald contribution        =     -62.20979750 Ry

     convergence has been achieved in   7 iterations

     negative rho (up, down):  2.383E-04 0.000E+00

     Forces acting on atoms (cartesian axes, Ry/au):

     atom    1 type  1   force =     0.00000000    0.00000000    0.00000000

     Total force =     0.000000     Total SCF correction =     0.000000


     Computing stress (Cartesian axis) and pressure


     negative rho (up, down):  2.383E-04 0.000E+00
          total   stress  (Ry/bohr**3)                   (kbar)     P=      121.77
   0.00082780  -0.00000000  -0.00000000          121.77       -0.00       -0.00
  -0.00000000   0.00082780   0.00000000           -0.00      121.77        0.00
  -0.00000000   0.00000000   0.00082780           -0.00        0.00      121.77


     Writing all to output data dir ./platinum.save/ :
     XML data file, charge density, pseudopotentials, collected wavefunctions

     init_run     :      0.29s CPU      0.32s WALL (       1 calls)
     electrons    :      3.06s CPU      3.47s WALL (       1 calls)
     forces       :      0.06s CPU      0.06s WALL (       1 calls)
     stress       :      0.22s CPU      0.22s WALL (       1 calls)

     Called by init_run:
     wfcinit      :      0.11s CPU      0.12s WALL (       1 calls)
     potinit      :      0.01s CPU      0.01s WALL (       1 calls)
     hinit0       :      0.16s CPU      0.18s WALL (       1 calls)

     Called by electrons:
     c_bands      :      2.52s CPU      2.89s WALL (       8 calls)
     sum_band     :      0.45s CPU      0.50s WALL (       8 calls)
     v_of_rho     :      0.00s CPU      0.00s WALL (       8 calls)
     newd         :      0.09s CPU      0.09s WALL (       8 calls)
     mix_rho      :      0.00s CPU      0.00s WALL (       8 calls)

     Called by c_bands:
     init_us_2    :      0.04s CPU      0.04s WALL (    1140 calls)
     cegterg      :      2.38s CPU      2.73s WALL (     481 calls)

     Called by *egterg:
     cdiaghg      :      0.17s CPU      0.19s WALL (    2516 calls)
     h_psi        :      1.41s CPU      1.62s WALL (    2637 calls)
     s_psi        :      0.22s CPU      0.25s WALL (    2637 calls)
     g_psi        :      0.02s CPU      0.03s WALL (    2096 calls)

     Called by h_psi:
     h_psi:calbec :      0.17s CPU      0.20s WALL (    2637 calls)
     vloc_psi     :      1.00s CPU      1.14s WALL (    2637 calls)
     add_vuspsi   :      0.21s CPU      0.24s WALL (    2637 calls)

     General routines
     calbec       :      0.23s CPU      0.26s WALL (    3417 calls)
     fft          :      0.02s CPU      0.03s WALL (      89 calls)
     ffts         :      0.00s CPU      0.00s WALL (      32 calls)
     fftw         :      0.75s CPU      0.86s WALL (   83848 calls)

     Parallel routines

     PWSCF        :      3.73s CPU      4.18s WALL


   This run was terminated on:  13:52: 0   4Nov2024            

=------------------------------------------------------------------------------=
   JOB DONE.
=------------------------------------------------------------------------------=
