
     Program PWSCF v.7.3.1 starts on  4Nov2024 at 13:51:52 

     This program is part of the open-source Quantum ESPRESSO suite
     for quantum simulation of materials; please cite
         "P. Giannozzi et al., J. Phys.:Condens. Matter 21 395502 (2009);
         "P. Giannozzi et al., J. Phys.:Condens. Matter 29 465901 (2017);
         "P. Giannozzi et al., J. Chem. Phys. 152 154105 (2020);
          URL http://www.quantum-espresso.org", 
     in publications or presentations arising from this work. More details at
     http://www.quantum-espresso.org/quote

     Parallel version (MPI), running on     1 processors

     MPI processes distributed on     1 nodes
     14424 MiB available memory on the printing compute node when the environment starts

     Waiting for input...
     Reading input from standard input

     Current dimensions of program PWSCF are:
     Max number of different atomic species (ntypx) = 10
     Max number of k-points (npk) =  40000
     Max angular momentum in pseudopotentials (lmaxx) =  4

     Subspace diagonalization in iterative solution of the eigenvalue problem:
     a serial algorithm will be used


     G-vector sticks info
     --------------------
     sticks:   dense  smooth     PW     G-vecs:    dense   smooth      PW
     Sum         151     151     55                 1243     1243     283

     Using Slab Decomposition



     bravais-lattice index     =            2
     lattice parameter (alat)  =       7.3700  a.u.
     unit-cell volume          =     100.0789 (a.u.)^3
     number of atoms/cell      =            1
     number of atomic types    =            1
     number of electrons       =        10.00
     number of Kohn-Sham states=           10
     kinetic-energy cutoff     =      20.0000  Ry
     charge density cutoff     =      80.0000  Ry
     scf convergence threshold =      1.0E-08
     mixing beta               =       0.7000
     number of iterations used =            8  plain     mixing
     Exchange-correlation=  SLA  PZ   NOGX NOGC
                           (   1   1   0   0   0   0   0)
     Non magnetic calculation with spin-orbit


     celldm(1)=   7.370000  celldm(2)=   0.000000  celldm(3)=   0.000000
     celldm(4)=   0.000000  celldm(5)=   0.000000  celldm(6)=   0.000000

     crystal axes: (cart. coord. in units of alat)
               a(1) = (  -0.500000   0.000000   0.500000 )  
               a(2) = (   0.000000   0.500000   0.500000 )  
               a(3) = (  -0.500000   0.500000   0.000000 )  

     reciprocal axes: (cart. coord. in units 2 pi/alat)
               b(1) = ( -1.000000 -1.000000  1.000000 )  
               b(2) = (  1.000000  1.000000  1.000000 )  
               b(3) = ( -1.000000  1.000000 -1.000000 )  


     PseudoPot. # 1 for Pt read from file:
     /home/dashlander/Desktop/Sem7/CPD/Assignment_3/pseudo/Pt.rel-pz-n-rrkjus.UPF
     MD5 check sum: 4baafe8ec1942611396c7a5466f52249
     Pseudo is Ultrasoft + core correction, Zval = 10.0
     Generated by new atomic code, or converted to UPF format
     Using radial grid of 1277 points,  6 beta functions with: 
                l(1) =   2
                l(2) =   2
                l(3) =   2
                l(4) =   2
                l(5) =   1
                l(6) =   1
     Q(r) pseudized with 0 coefficients 


     atomic species   valence    mass     pseudopotential
     Pt               10.00   195.08400     Pt( 1.00)

     48 Sym. Ops., with inversion, found



   Cartesian axes

     site n.     atom                  positions (alat units)
         1        Pt     tau(   1) = (   0.0000000   0.0000000   0.0000000  )

     number of k points=    29
                       cart. coord. in units 2pi/alat
        k(    1) = (   0.0000000   0.0000000   0.0000000), wk =   0.0019531
        k(    2) = (  -0.1250000   0.1250000  -0.1250000), wk =   0.0156250
        k(    3) = (  -0.2500000   0.2500000  -0.2500000), wk =   0.0156250
        k(    4) = (  -0.3750000   0.3750000  -0.3750000), wk =   0.0156250
        k(    5) = (   0.5000000  -0.5000000   0.5000000), wk =   0.0078125
        k(    6) = (   0.0000000   0.2500000   0.0000000), wk =   0.0117188
        k(    7) = (  -0.1250000   0.3750000  -0.1250000), wk =   0.0468750
        k(    8) = (  -0.2500000   0.5000000  -0.2500000), wk =   0.0468750
        k(    9) = (   0.6250000  -0.3750000   0.6250000), wk =   0.0468750
        k(   10) = (   0.5000000  -0.2500000   0.5000000), wk =   0.0468750
        k(   11) = (   0.3750000  -0.1250000   0.3750000), wk =   0.0468750
        k(   12) = (   0.2500000   0.0000000   0.2500000), wk =   0.0234375
        k(   13) = (   0.0000000   0.5000000   0.0000000), wk =   0.0117188
        k(   14) = (  -0.1250000   0.6250000  -0.1250000), wk =   0.0468750
        k(   15) = (   0.7500000  -0.2500000   0.7500000), wk =   0.0468750
        k(   16) = (   0.6250000  -0.1250000   0.6250000), wk =   0.0468750
        k(   17) = (   0.5000000   0.0000000   0.5000000), wk =   0.0234375
        k(   18) = (   0.0000000   0.7500000   0.0000000), wk =   0.0117188
        k(   19) = (   0.8750000  -0.1250000   0.8750000), wk =   0.0468750
        k(   20) = (   0.7500000   0.0000000   0.7500000), wk =   0.0234375
        k(   21) = (   0.0000000  -1.0000000   0.0000000), wk =   0.0058594
        k(   22) = (  -0.2500000   0.5000000   0.0000000), wk =   0.0468750
        k(   23) = (   0.6250000  -0.3750000   0.8750000), wk =   0.0937500
        k(   24) = (   0.5000000  -0.2500000   0.7500000), wk =   0.0468750
        k(   25) = (   0.7500000  -0.2500000   1.0000000), wk =   0.0468750
        k(   26) = (   0.6250000  -0.1250000   0.8750000), wk =   0.0937500
        k(   27) = (   0.5000000   0.0000000   0.7500000), wk =   0.0468750
        k(   28) = (  -0.2500000  -1.0000000   0.0000000), wk =   0.0234375
        k(   29) = (  -0.5000000  -1.0000000   0.0000000), wk =   0.0117188

     Dense  grid:     1243 G-vectors     FFT dimensions: (  15,  15,  15)

     Estimated max dynamical RAM per process >      11.72 MB

     Check: negative core charge=   -0.000029

     Initial potential from superposition of free atoms

     starting charge       9.9999, renormalised to      10.0000

     negative rho (up, down):  1.043E-04 0.000E+00
     Starting wfcs are   12 randomized atomic wfcs

     total cpu time spent up to now is        0.4 secs

     Self-consistent Calculation

     iteration #  1     ecut=    20.00 Ry     beta= 0.70
     Davidson diagonalization with overlap
     ethr =  1.00E-02,  avg # of iterations =  2.2

     Threshold (ethr) on eigenvalues was too large:
     Diagonalizing with lowered threshold

     Davidson diagonalization with overlap
     ethr =  1.38E-05,  avg # of iterations =  7.6

     negative rho (up, down):  1.949E-04 0.000E+00

     total cpu time spent up to now is        0.8 secs

     total energy              =     -69.45319278 Ry
     estimated scf accuracy    <       0.00333780 Ry

     iteration #  2     ecut=    20.00 Ry     beta= 0.70
     Davidson diagonalization with overlap
     ethr =  3.34E-05,  avg # of iterations =  2.1

     negative rho (up, down):  2.197E-04 0.000E+00

     total cpu time spent up to now is        1.0 secs

     total energy              =     -69.45402350 Ry
     estimated scf accuracy    <       0.00036070 Ry

     iteration #  3     ecut=    20.00 Ry     beta= 0.70
     Davidson diagonalization with overlap
     ethr =  3.61E-06,  avg # of iterations =  2.4

     negative rho (up, down):  2.370E-04 0.000E+00

     total cpu time spent up to now is        1.2 secs

     total energy              =     -69.45479773 Ry
     estimated scf accuracy    <       0.00000908 Ry

     iteration #  4     ecut=    20.00 Ry     beta= 0.70
     Davidson diagonalization with overlap
     ethr =  9.08E-08,  avg # of iterations =  6.5

     negative rho (up, down):  2.378E-04 0.000E+00

     total cpu time spent up to now is        1.4 secs

     total energy              =     -69.45550880 Ry
     estimated scf accuracy    <       0.00001042 Ry

     iteration #  5     ecut=    20.00 Ry     beta= 0.70
     Davidson diagonalization with overlap
     ethr =  9.08E-08,  avg # of iterations =  2.8

     negative rho (up, down):  2.383E-04 0.000E+00

     total cpu time spent up to now is        1.6 secs

     total energy              =     -69.45551169 Ry
     estimated scf accuracy    <       0.00000890 Ry

     iteration #  6     ecut=    20.00 Ry     beta= 0.70
     Davidson diagonalization with overlap
     ethr =  8.90E-08,  avg # of iterations =  2.0

     negative rho (up, down):  2.383E-04 0.000E+00

     total cpu time spent up to now is        1.8 secs

     total energy              =     -69.45551296 Ry
     estimated scf accuracy    <       0.00000019 Ry

     iteration #  7     ecut=    20.00 Ry     beta= 0.70
     Davidson diagonalization with overlap
     ethr =  1.88E-09,  avg # of iterations =  6.6

     negative rho (up, down):  2.383E-04 0.000E+00

     total cpu time spent up to now is        2.0 secs

     total energy              =     -69.45551324 Ry
     estimated scf accuracy    <       0.00000003 Ry

     iteration #  8     ecut=    20.00 Ry     beta= 0.70
     Davidson diagonalization with overlap
     ethr =  2.59E-10,  avg # of iterations =  3.9

     negative rho (up, down):  2.383E-04 0.000E+00

     total cpu time spent up to now is        2.2 secs

     total energy              =     -69.45551326 Ry
     estimated scf accuracy    <       0.00000003 Ry

     iteration #  9     ecut=    20.00 Ry     beta= 0.70
     Davidson diagonalization with overlap
     ethr =  2.59E-10,  avg # of iterations =  1.0

     negative rho (up, down):  2.383E-04 0.000E+00

     total cpu time spent up to now is        2.3 secs

     total energy              =     -69.45551325 Ry
     estimated scf accuracy    <       0.00000003 Ry

     iteration # 10     ecut=    20.00 Ry     beta= 0.70
     Davidson diagonalization with overlap
     ethr =  2.59E-10,  avg # of iterations =  1.0

     negative rho (up, down):  2.383E-04 0.000E+00

     total cpu time spent up to now is        2.4 secs

     End of self-consistent calculation

          k = 0.0000 0.0000 0.0000 (   169 PWs)   bands (ev):

     7.5640   7.5640  13.7727  13.7727  13.7727  13.7727  14.7617  14.7617
    16.6027  16.6027

          k =-0.1250 0.1250-0.1250 (   153 PWs)   bands (ev):

     8.1823   8.1823  13.6972  13.6972  13.9047  13.9047  14.9135  14.9135
    16.3991  16.3991

          k =-0.2500 0.2500-0.2500 (   150 PWs)   bands (ev):

     9.6411   9.6411  13.6851  13.6851  13.9504  13.9504  15.1462  15.1462
    16.4688  16.4688

          k =-0.3750 0.3750-0.3750 (   153 PWs)   bands (ev):

    10.4777  10.4777  13.7159  13.7159  14.7649  14.7649  15.3147  15.3147
    17.4558  17.4558

          k = 0.5000-0.5000 0.5000 (   156 PWs)   bands (ev):

    10.5331  10.5331  13.5797  13.5797  14.5811  14.5811  17.3248  17.3248
    17.8875  17.8875

          k = 0.0000 0.2500 0.0000 (   153 PWs)   bands (ev):

     8.3916   8.3916  13.4725  13.4725  14.1106  14.1106  15.0300  15.0300
    16.1220  16.1220

          k =-0.1250 0.3750-0.1250 (   154 PWs)   bands (ev):

     9.6318   9.6318  13.1380  13.1380  14.2014  14.2014  15.4034  15.4034
    16.1177  16.1177

          k =-0.2500 0.5000-0.2500 (   151 PWs)   bands (ev):

    10.8269  10.8269  13.6083  13.6083  13.8736  13.8736  15.1334  15.1334
    17.5113  17.5113

          k = 0.6250-0.3750 0.6250 (   155 PWs)   bands (ev):

    11.0062  11.0062  13.4858  13.4858  14.6597  14.6597  15.4769  15.4769
    18.2296  18.2296

          k = 0.5000-0.2500 0.5000 (   151 PWs)   bands (ev):

    11.0360  11.0360  13.5672  13.5672  14.7035  14.7035  15.1668  15.1668
    17.5438  17.5438

          k = 0.3750-0.1250 0.3750 (   149 PWs)   bands (ev):

    10.6019  10.6019  13.4382  13.4382  13.9971  13.9971  15.1749  15.1749
    16.3337  16.3337

          k = 0.2500 0.0000 0.2500 (   157 PWs)   bands (ev):

     9.1302   9.1302  13.4072  13.4072  14.0976  14.0976  15.2390  15.2390
    15.9695  15.9695

          k = 0.0000 0.5000 0.0000 (   149 PWs)   bands (ev):

    10.3444  10.3444  12.5059  12.5059  14.5545  14.5545  16.0808  16.0808
    16.1790  16.1790

          k =-0.1250 0.6250-0.1250 (   149 PWs)   bands (ev):

    11.2293  11.2293  12.2463  12.2463  14.4560  14.4560  16.2912  16.2912
    17.6040  17.6040

          k = 0.7500-0.2500 0.7500 (   149 PWs)   bands (ev):

    11.6017  11.6017  12.7317  12.7317  14.3238  14.3238  15.9739  15.9739
    18.3512  18.3512

          k = 0.6250-0.1250 0.6250 (   151 PWs)   bands (ev):

    11.9777  11.9777  13.0599  13.0599  14.1996  14.1996  15.6553  15.6553
    17.6444  17.6444

          k = 0.5000 0.0000 0.5000 (   156 PWs)   bands (ev):

    12.0200  12.0200  13.1765  13.1765  13.6190  13.6190  15.4577  15.4577
    16.5629  16.5629

          k = 0.0000 0.7500 0.0000 (   145 PWs)   bands (ev):

    10.9868  10.9868  11.6031  11.6031  16.5383  16.5383  17.5080  17.5080
    17.7095  17.7095

          k = 0.8750-0.1250 0.8750 (   148 PWs)   bands (ev):

    11.0992  11.0992  11.6220  11.6220  16.3115  16.3115  17.4473  17.4473
    18.5875  18.5875

          k = 0.7500 0.0000 0.7500 (   150 PWs)   bands (ev):

    11.5884  11.5884  12.3675  12.3675  15.0418  15.0418  16.7432  16.7432
    18.1308  18.1308

          k = 0.0000-1.0000 0.0000 (   150 PWs)   bands (ev):

    10.7397  10.7397  11.2567  11.2567  17.9287  17.9287  18.3102  18.3102
    19.2810  19.2810

          k =-0.2500 0.5000 0.0000 (   150 PWs)   bands (ev):

    10.9289  10.9289  12.7650  12.7650  13.9519  13.9519  15.9511  15.9511
    16.2166  16.2166

          k = 0.6250-0.3750 0.8750 (   149 PWs)   bands (ev):

    11.7840  11.7840  13.1842  13.1842  13.5735  13.5735  15.7040  15.7040
    17.4348  17.4348

          k = 0.5000-0.2500 0.7500 (   148 PWs)   bands (ev):

    11.8189  11.8189  13.0039  13.0039  14.3553  14.3553  15.5140  15.5140
    18.0033  18.0033

          k = 0.7500-0.2500 1.0000 (   149 PWs)   bands (ev):

    11.6207  11.6207  12.0624  12.0624  14.5802  14.5802  17.1441  17.1441
    17.7382  17.7382

          k = 0.6250-0.1250 0.8750 (   154 PWs)   bands (ev):

    11.9744  11.9744  12.5672  12.5672  14.1898  14.1898  16.4714  16.4714
    18.2917  18.2917

          k = 0.5000 0.0000 0.7500 (   154 PWs)   bands (ev):

    12.5464  12.5464  12.8968  12.8968  13.3998  13.3998  16.1515  16.1515
    17.7608  17.7608

          k =-0.2500-1.0000 0.0000 (   148 PWs)   bands (ev):

    11.3234  11.3234  11.7815  11.7815  15.7806  15.7806  17.2750  17.2750
    18.7770  18.7770

          k =-0.5000-1.0000 0.0000 (   156 PWs)   bands (ev):

    12.1493  12.1493  13.2056  13.2056  13.4480  13.4480  16.1711  16.1711
    18.7168  18.7168

     highest occupied level (ev):    19.2810

!    total energy              =     -69.45551325 Ry
     estimated scf accuracy    <          9.8E-09 Ry

     The total energy is the sum of the following terms:
     one-electron contribution =      17.65082331 Ry
     hartree contribution      =       3.67917131 Ry
     xc contribution           =     -28.57571037 Ry
     ewald contribution        =     -62.20979750 Ry

     convergence has been achieved in  10 iterations

     negative rho (up, down):  2.383E-04 0.000E+00

     Forces acting on atoms (cartesian axes, Ry/au):

     atom    1 type  1   force =     0.00000000    0.00000000    0.00000000

     Total force =     0.000000     Total SCF correction =     0.000000


     Computing stress (Cartesian axis) and pressure


     negative rho (up, down):  2.383E-04 0.000E+00
          total   stress  (Ry/bohr**3)                   (kbar)     P=      127.15
   0.00086433  -0.00000000  -0.00000000          127.15       -0.00       -0.00
  -0.00000000   0.00086433   0.00000000           -0.00      127.15        0.00
  -0.00000000   0.00000000   0.00086433           -0.00        0.00      127.15


     Writing all to output data dir ./platinum.save/ :
     XML data file, charge density, pseudopotentials, collected wavefunctions

     init_run     :      0.23s CPU      0.26s WALL (       1 calls)
     electrons    :      1.84s CPU      2.07s WALL (       1 calls)
     forces       :      0.03s CPU      0.03s WALL (       1 calls)
     stress       :      0.14s CPU      0.14s WALL (       1 calls)

     Called by init_run:
     wfcinit      :      0.06s CPU      0.06s WALL (       1 calls)
     potinit      :      0.01s CPU      0.01s WALL (       1 calls)
     hinit0       :      0.15s CPU      0.17s WALL (       1 calls)

     Called by electrons:
     c_bands      :      1.40s CPU      1.61s WALL (      11 calls)
     sum_band     :      0.32s CPU      0.35s WALL (      11 calls)
     v_of_rho     :      0.00s CPU      0.00s WALL (      11 calls)
     newd         :      0.12s CPU      0.12s WALL (      11 calls)
     mix_rho      :      0.00s CPU      0.00s WALL (      11 calls)

     Called by c_bands:
     init_us_2    :      0.02s CPU      0.03s WALL (     725 calls)
     cegterg      :      1.31s CPU      1.51s WALL (     319 calls)

     Called by *egterg:
     cdiaghg      :      0.08s CPU      0.10s WALL (    1396 calls)
     h_psi        :      0.77s CPU      0.90s WALL (    1454 calls)
     s_psi        :      0.12s CPU      0.14s WALL (    1454 calls)
     g_psi        :      0.01s CPU      0.01s WALL (    1106 calls)

     Called by h_psi:
     h_psi:calbec :      0.10s CPU      0.11s WALL (    1454 calls)
     vloc_psi     :      0.54s CPU      0.63s WALL (    1454 calls)
     add_vuspsi   :      0.12s CPU      0.14s WALL (    1454 calls)

     General routines
     calbec       :      0.13s CPU      0.15s WALL (    1918 calls)
     fft          :      0.02s CPU      0.03s WALL (     119 calls)
     ffts         :      0.00s CPU      0.00s WALL (      44 calls)
     fftw         :      0.41s CPU      0.48s WALL (   49732 calls)

     Parallel routines

     PWSCF        :      2.35s CPU      2.62s WALL


   This run was terminated on:  13:51:55   4Nov2024            

=------------------------------------------------------------------------------=
   JOB DONE.
=------------------------------------------------------------------------------=
