
     Program PWSCF v.7.3.1 starts on  4Nov2024 at 22: 3: 2 

     This program is part of the open-source Quantum ESPRESSO suite
     for quantum simulation of materials; please cite
         "P. Giannozzi et al., J. Phys.:Condens. Matter 21 395502 (2009);
         "P. Giannozzi et al., J. Phys.:Condens. Matter 29 465901 (2017);
         "P. Giannozzi et al., J. Chem. Phys. 152 154105 (2020);
          URL http://www.quantum-espresso.org", 
     in publications or presentations arising from this work. More details at
     http://www.quantum-espresso.org/quote

     Parallel version (MPI), running on     1 processors

     MPI processes distributed on     1 nodes
     11790 MiB available memory on the printing compute node when the environment starts

     Waiting for input...
     Reading input from standard input

     Current dimensions of program PWSCF are:
     Max number of different atomic species (ntypx) = 10
     Max number of k-points (npk) =  40000
     Max angular momentum in pseudopotentials (lmaxx) =  4

     Subspace diagonalization in iterative solution of the eigenvalue problem:
     a serial algorithm will be used


     G-vector sticks info
     --------------------
     sticks:   dense  smooth     PW     G-vecs:    dense   smooth      PW
     Sum         169     169     61                 1471     1471     339

     Using Slab Decomposition



     bravais-lattice index     =            2
     lattice parameter (alat)  =       7.9600  a.u.
     unit-cell volume          =     126.0896 (a.u.)^3
     number of atoms/cell      =            1
     number of atomic types    =            1
     number of electrons       =        10.00
     number of Kohn-Sham states=           10
     kinetic-energy cutoff     =      20.0000  Ry
     charge density cutoff     =      80.0000  Ry
     scf convergence threshold =      1.0E-08
     mixing beta               =       0.7000
     number of iterations used =            8  plain     mixing
     Exchange-correlation=  SLA  PZ   NOGX NOGC
                           (   1   1   0   0   0   0   0)
     Non magnetic calculation with spin-orbit


     celldm(1)=   7.960000  celldm(2)=   0.000000  celldm(3)=   0.000000
     celldm(4)=   0.000000  celldm(5)=   0.000000  celldm(6)=   0.000000

     crystal axes: (cart. coord. in units of alat)
               a(1) = (  -0.500000   0.000000   0.500000 )  
               a(2) = (   0.000000   0.500000   0.500000 )  
               a(3) = (  -0.500000   0.500000   0.000000 )  

     reciprocal axes: (cart. coord. in units 2 pi/alat)
               b(1) = ( -1.000000 -1.000000  1.000000 )  
               b(2) = (  1.000000  1.000000  1.000000 )  
               b(3) = ( -1.000000  1.000000 -1.000000 )  


     PseudoPot. # 1 for Pt read from file:
     /home/dashlander/Desktop/Sem7/CPD/Assignment_3/pseudo/Pt.rel-pz-n-rrkjus.UPF
     MD5 check sum: 4baafe8ec1942611396c7a5466f52249
     Pseudo is Ultrasoft + core correction, Zval = 10.0
     Generated by new atomic code, or converted to UPF format
     Using radial grid of 1277 points,  6 beta functions with: 
                l(1) =   2
                l(2) =   2
                l(3) =   2
                l(4) =   2
                l(5) =   1
                l(6) =   1
     Q(r) pseudized with 0 coefficients 


     atomic species   valence    mass     pseudopotential
     Pt               10.00   195.08400     Pt( 1.00)

     48 Sym. Ops., with inversion, found



   Cartesian axes

     site n.     atom                  positions (alat units)
         1        Pt     tau(   1) = (   0.0000000   0.0000000   0.0000000  )

     number of k points=    35
                       cart. coord. in units 2pi/alat
        k(    1) = (   0.0000000   0.0000000   0.0000000), wk =   0.0013717
        k(    2) = (  -0.1111111   0.1111111  -0.1111111), wk =   0.0109739
        k(    3) = (  -0.2222222   0.2222222  -0.2222222), wk =   0.0109739
        k(    4) = (  -0.3333333   0.3333333  -0.3333333), wk =   0.0109739
        k(    5) = (  -0.4444444   0.4444444  -0.4444444), wk =   0.0109739
        k(    6) = (   0.0000000   0.2222222   0.0000000), wk =   0.0082305
        k(    7) = (  -0.1111111   0.3333333  -0.1111111), wk =   0.0329218
        k(    8) = (  -0.2222222   0.4444444  -0.2222222), wk =   0.0329218
        k(    9) = (  -0.3333333   0.5555556  -0.3333333), wk =   0.0329218
        k(   10) = (   0.5555556  -0.3333333   0.5555556), wk =   0.0329218
        k(   11) = (   0.4444444  -0.2222222   0.4444444), wk =   0.0329218
        k(   12) = (   0.3333333  -0.1111111   0.3333333), wk =   0.0329218
        k(   13) = (   0.2222222  -0.0000000   0.2222222), wk =   0.0164609
        k(   14) = (   0.0000000   0.4444444   0.0000000), wk =   0.0082305
        k(   15) = (  -0.1111111   0.5555556  -0.1111111), wk =   0.0329218
        k(   16) = (  -0.2222222   0.6666667  -0.2222222), wk =   0.0329218
        k(   17) = (   0.6666667  -0.2222222   0.6666667), wk =   0.0329218
        k(   18) = (   0.5555556  -0.1111111   0.5555556), wk =   0.0329218
        k(   19) = (   0.4444444   0.0000000   0.4444444), wk =   0.0164609
        k(   20) = (   0.0000000   0.6666667   0.0000000), wk =   0.0082305
        k(   21) = (  -0.1111111   0.7777778  -0.1111111), wk =   0.0329218
        k(   22) = (   0.7777778  -0.1111111   0.7777778), wk =   0.0329218
        k(   23) = (   0.6666667  -0.0000000   0.6666667), wk =   0.0164609
        k(   24) = (   0.0000000   0.8888889   0.0000000), wk =   0.0082305
        k(   25) = (   0.8888889   0.0000000   0.8888889), wk =   0.0164609
        k(   26) = (  -0.2222222   0.4444444   0.0000000), wk =   0.0329218
        k(   27) = (  -0.3333333   0.5555556  -0.1111111), wk =   0.0658436
        k(   28) = (   0.5555556  -0.3333333   0.7777778), wk =   0.0658436
        k(   29) = (  -0.2222222   0.6666667   0.0000000), wk =   0.0329218
        k(   30) = (   0.6666667  -0.2222222   0.8888889), wk =   0.0658436
        k(   31) = (   0.5555556  -0.1111111   0.7777778), wk =   0.0658436
        k(   32) = (   0.4444444   0.0000000   0.6666667), wk =   0.0329218
        k(   33) = (   0.7777778  -0.1111111   1.0000000), wk =   0.0329218
        k(   34) = (   0.6666667  -0.0000000   0.8888889), wk =   0.0329218
        k(   35) = (   0.5555556  -0.1111111   1.0000000), wk =   0.0329218

     Dense  grid:     1471 G-vectors     FFT dimensions: (  18,  18,  18)

     Estimated max dynamical RAM per process >      14.53 MB

     Check: negative core charge=   -0.000071

     Initial potential from superposition of free atoms

     starting charge       9.9999, renormalised to      10.0000

     negative rho (up, down):  1.755E-04 0.000E+00
     Starting wfcs are   12 randomized atomic wfcs

     total cpu time spent up to now is        0.7 secs

     Self-consistent Calculation

     iteration #  1     ecut=    20.00 Ry     beta= 0.70
     Davidson diagonalization with overlap
     ethr =  1.00E-02,  avg # of iterations =  2.0

     Threshold (ethr) on eigenvalues was too large:
     Diagonalizing with lowered threshold

     Davidson diagonalization with overlap
     ethr =  5.70E-05,  avg # of iterations =  5.8

     negative rho (up, down):  2.203E-04 0.000E+00

     total cpu time spent up to now is        1.5 secs

     total energy              =     -69.42999020 Ry
     estimated scf accuracy    <       0.00137252 Ry

     iteration #  2     ecut=    20.00 Ry     beta= 0.70
     Davidson diagonalization with overlap
     ethr =  1.37E-05,  avg # of iterations =  2.2

     negative rho (up, down):  2.340E-04 0.000E+00

     total cpu time spent up to now is        1.9 secs

     total energy              =     -69.43024655 Ry
     estimated scf accuracy    <       0.00011691 Ry

     iteration #  3     ecut=    20.00 Ry     beta= 0.70
     Davidson diagonalization with overlap
     ethr =  1.17E-06,  avg # of iterations =  3.3

     negative rho (up, down):  2.413E-04 0.000E+00

     total cpu time spent up to now is        2.2 secs

     total energy              =     -69.43029154 Ry
     estimated scf accuracy    <       0.00000832 Ry

     iteration #  4     ecut=    20.00 Ry     beta= 0.70
     Davidson diagonalization with overlap
     ethr =  8.32E-08,  avg # of iterations =  5.1

     negative rho (up, down):  2.412E-04 0.000E+00

     total cpu time spent up to now is        2.6 secs

     total energy              =     -69.43029699 Ry
     estimated scf accuracy    <       0.00000006 Ry

     iteration #  5     ecut=    20.00 Ry     beta= 0.70
     Davidson diagonalization with overlap
     c_bands:  4 eigenvalues not converged
     ethr =  6.17E-10,  avg # of iterations =  9.7

     negative rho (up, down):  2.413E-04 0.000E+00

     total cpu time spent up to now is        3.2 secs

     End of self-consistent calculation

          k = 0.0000 0.0000 0.0000 (   181 PWs)   bands (ev):

     4.5795   4.5795   9.5684   9.5684   9.5684   9.5684  10.6087  10.6087
    11.8049  11.8049

          k =-0.1111 0.1111-0.1111 (   178 PWs)   bands (ev):

     4.9771   4.9771   9.5560   9.5560   9.6308   9.6308  10.6849  10.6849
    11.6837  11.6837

          k =-0.2222 0.2222-0.2222 (   187 PWs)   bands (ev):

     6.0217   6.0217   9.5464   9.5464   9.6803   9.6803  10.8934  10.8934
    11.5756  11.5756

          k =-0.3333 0.3333-0.3333 (   186 PWs)   bands (ev):

     7.0114   7.0114   9.5813   9.5813  10.2435  10.2435  10.7381  10.7381
    12.0835  12.0835

          k =-0.4444 0.4444-0.4444 (   189 PWs)   bands (ev):

     7.2717   7.2717   9.4638   9.4638  10.4978  10.4978  12.1199  12.1199
    12.6579  12.6579

          k = 0.0000 0.2222 0.0000 (   177 PWs)   bands (ev):

     5.1114   5.1114   9.4496   9.4496   9.7389   9.7389  10.7263  10.7263
    11.5770  11.5770

          k =-0.1111 0.3333-0.1111 (   180 PWs)   bands (ev):

     5.9612   5.9612   9.2958   9.2958   9.8375   9.8375  10.9745  10.9745
    11.4371  11.4371

          k =-0.2222 0.4444-0.2222 (   190 PWs)   bands (ev):

     7.0790   7.0790   9.4273   9.4273   9.7534   9.7534  10.8915  10.8915
    11.9952  11.9952

          k =-0.3333 0.5556-0.3333 (   188 PWs)   bands (ev):

     7.5360   7.5360   9.4814   9.4814  10.4149  10.4149  10.8825  10.8825
    12.7477  12.7477

          k = 0.5556-0.3333 0.5556 (   187 PWs)   bands (ev):

     7.5808   7.5808   9.4319   9.4319  10.4789  10.4789  11.3915  11.3915
    12.7300  12.7300

          k = 0.4444-0.2222 0.4444 (   189 PWs)   bands (ev):

     7.4900   7.4900   9.5223   9.5223  10.3194  10.3194  10.7040  10.7040
    12.1559  12.1559

          k = 0.3333-0.1111 0.3333 (   190 PWs)   bands (ev):

     6.7464   6.7464   9.3866   9.3866   9.7721   9.7721  10.9512  10.9512
    11.4841  11.4841

          k = 0.2222-0.0000 0.2222 (   180 PWs)   bands (ev):

     5.6061   5.6061   9.4346   9.4346   9.7463   9.7463  10.8566  10.8566
    11.4617  11.4617

          k = 0.0000 0.4444 0.0000 (   182 PWs)   bands (ev):

     6.5222   6.5222   8.9683   8.9683  10.0376  10.0376  11.2797  11.2797
    11.4039  11.4039

          k =-0.1111 0.5556-0.1111 (   187 PWs)   bands (ev):

     7.4370   7.4370   8.7697   8.7697  10.0039  10.0039  11.4266  11.4266
    12.0064  12.0064

          k =-0.2222 0.6667-0.2222 (   193 PWs)   bands (ev):

     8.0070   8.0070   9.0412   9.0412   9.9223   9.9223  11.2730  11.2730
    12.8216  12.8216

          k = 0.6667-0.2222 0.6667 (   191 PWs)   bands (ev):

     8.1782   8.1782   9.2133   9.2133  10.2291  10.2291  11.1277  11.1277
    12.7765  12.7765

          k = 0.5556-0.1111 0.5556 (   190 PWs)   bands (ev):

     8.3160   8.3160   9.2973   9.2973  10.0235  10.0235  10.9515  10.9515
    12.1983  12.1983

          k = 0.4444 0.0000 0.4444 (   192 PWs)   bands (ev):

     7.8772   7.8772   9.2197   9.2197   9.7207   9.7207  10.9863  10.9863
    11.5744  11.5744

          k = 0.0000 0.6667 0.0000 (   194 PWs)   bands (ev):

     7.6572   7.6572   8.3766   8.3766  10.9138  10.9138  12.0520  12.0520
    12.1510  12.1510

          k =-0.1111 0.7778-0.1111 (   195 PWs)   bands (ev):

     7.8657   7.8657   8.2951   8.2951  11.1531  11.1531  12.1349  12.1349
    12.9291  12.9291

          k = 0.7778-0.1111 0.7778 (   190 PWs)   bands (ev):

     8.1144   8.1144   8.6422   8.6422  10.7659  10.7659  11.8583  11.8583
    12.9535  12.9535

          k = 0.6667-0.0000 0.6667 (   186 PWs)   bands (ev):

     8.4533   8.4533   9.1095   9.1095  10.1536  10.1536  11.4406  11.4406
    12.5136  12.5136

          k = 0.0000 0.8889 0.0000 (   194 PWs)   bands (ev):

     7.6235   7.6235   8.0059   8.0059  12.4895  12.4895  12.5791  12.5791
    13.5619  13.5619

          k = 0.8889 0.0000 0.8889 (   192 PWs)   bands (ev):

     7.7544   7.7544   8.1087   8.1087  12.0038  12.0038  12.4341  12.4341
    13.3085  13.3085

          k =-0.2222 0.4444 0.0000 (   186 PWs)   bands (ev):

     6.9205   6.9205   9.0810   9.0810   9.8333   9.8333  11.2756  11.2756
    11.3804  11.3804

          k =-0.3333 0.5556-0.1111 (   192 PWs)   bands (ev):

     7.8903   7.8903   9.2432   9.2432   9.6352   9.6352  11.1127  11.1127
    12.0632  12.0632

          k = 0.5556-0.3333 0.7778 (   190 PWs)   bands (ev):

     8.0845   8.0845   9.2881   9.2881  10.1936  10.1936  11.0238  11.0238
    12.6448  12.6448

          k =-0.2222 0.6667 0.0000 (   195 PWs)   bands (ev):

     8.0469   8.0469   8.5998   8.5998  10.0754  10.0754  11.9656  11.9656
    12.1765  12.1765

          k = 0.6667-0.2222 0.8889 (   193 PWs)   bands (ev):

     8.3686   8.3686   8.8528   8.8528   9.9858   9.9858  11.7280  11.7280
    12.7575  12.7575

          k = 0.5556-0.1111 0.7778 (   193 PWs)   bands (ev):

     8.6216   8.6216   9.0331   9.0331   9.9019   9.9019  11.4377  11.4377
    12.6968  12.6968

          k = 0.4444 0.0000 0.6667 (   192 PWs)   bands (ev):

     8.7667   8.7667   9.0729   9.0729   9.4455   9.4455  11.4246  11.4246
    12.2204  12.2204

          k = 0.7778-0.1111 1.0000 (   198 PWs)   bands (ev):

     7.9779   7.9779   8.2853   8.2853  11.1917  11.1917  12.3097  12.3097
    13.1203  13.1203

          k = 0.6667-0.0000 0.8889 (   195 PWs)   bands (ev):

     8.2896   8.2896   8.6825   8.6825  10.5367  10.5367  11.8537  11.8537
    13.0625  13.0625

          k = 0.5556-0.1111 1.0000 (   198 PWs)   bands (ev):

     8.6314   8.6314   9.0711   9.0711   9.7281   9.7281  11.6180  11.6180
    13.0206  13.0206

     highest occupied level (ev):    13.5619

!    total energy              =     -69.43029732 Ry
     estimated scf accuracy    <          9.0E-09 Ry

     The total energy is the sum of the following terms:
     one-electron contribution =      11.42136521 Ry
     hartree contribution      =       5.09065779 Ry
     xc contribution           =     -28.34355050 Ry
     ewald contribution        =     -57.59876981 Ry

     convergence has been achieved in   5 iterations

     negative rho (up, down):  2.413E-04 0.000E+00

     Forces acting on atoms (cartesian axes, Ry/au):

     atom    1 type  1   force =     0.00000000    0.00000000    0.00000000

     Total force =     0.000000     Total SCF correction =     0.000000


     Computing stress (Cartesian axis) and pressure


     negative rho (up, down):  2.413E-04 0.000E+00
          total   stress  (Ry/bohr**3)                   (kbar)     P=     -307.20
  -0.00208832  -0.00000000   0.00000000         -307.20       -0.00        0.00
  -0.00000000  -0.00208832  -0.00000000           -0.00     -307.20       -0.00
   0.00000000  -0.00000000  -0.00208832            0.00       -0.00     -307.20


     Writing all to output data dir ./platinum.save/ :
     XML data file, charge density, pseudopotentials, collected wavefunctions

     init_run     :      0.37s CPU      0.64s WALL (       1 calls)
     electrons    :      2.33s CPU      2.51s WALL (       1 calls)
     forces       :      0.04s CPU      0.04s WALL (       1 calls)
     stress       :      0.19s CPU      0.19s WALL (       1 calls)

     Called by init_run:
     wfcinit      :      0.16s CPU      0.26s WALL (       1 calls)
     potinit      :      0.01s CPU      0.01s WALL (       1 calls)
     hinit0       :      0.19s CPU      0.35s WALL (       1 calls)

     Called by electrons:
     c_bands      :      1.95s CPU      2.10s WALL (       6 calls)
     sum_band     :      0.31s CPU      0.33s WALL (       6 calls)
     v_of_rho     :      0.00s CPU      0.00s WALL (       6 calls)
     newd         :      0.07s CPU      0.08s WALL (       6 calls)
     mix_rho      :      0.00s CPU      0.00s WALL (       6 calls)

     Called by c_bands:
     init_us_2    :      0.02s CPU      0.03s WALL (     525 calls)
     cegterg      :      1.87s CPU      2.02s WALL (     210 calls)

     Called by *egterg:
     cdiaghg      :      0.09s CPU      0.09s WALL (    1157 calls)
     h_psi        :      1.39s CPU      1.59s WALL (    1227 calls)
     s_psi        :      0.13s CPU      0.14s WALL (    1227 calls)
     g_psi        :      0.01s CPU      0.01s WALL (     982 calls)

     Called by h_psi:
     h_psi:calbec :      0.10s CPU      0.11s WALL (    1227 calls)
     vloc_psi     :      1.15s CPU      1.33s WALL (    1227 calls)
     add_vuspsi   :      0.12s CPU      0.13s WALL (    1227 calls)

     General routines
     calbec       :      0.14s CPU      0.15s WALL (    1612 calls)
     fft          :      0.06s CPU      0.21s WALL (      69 calls)
     ffts         :      0.00s CPU      0.00s WALL (      24 calls)
     fftw         :      1.03s CPU      1.20s WALL (   37684 calls)

     Parallel routines

     PWSCF        :      3.04s CPU      3.49s WALL


   This run was terminated on:  22: 3: 6   4Nov2024            

=------------------------------------------------------------------------------=
   JOB DONE.
=------------------------------------------------------------------------------=
