
     Program PWSCF v.7.3.1 starts on  4Nov2024 at 22: 2:23 

     This program is part of the open-source Quantum ESPRESSO suite
     for quantum simulation of materials; please cite
         "P. Giannozzi et al., J. Phys.:Condens. Matter 21 395502 (2009);
         "P. Giannozzi et al., J. Phys.:Condens. Matter 29 465901 (2017);
         "P. Giannozzi et al., J. Chem. Phys. 152 154105 (2020);
          URL http://www.quantum-espresso.org", 
     in publications or presentations arising from this work. More details at
     http://www.quantum-espresso.org/quote

     Parallel version (MPI), running on     1 processors

     MPI processes distributed on     1 nodes
     11846 MiB available memory on the printing compute node when the environment starts

     Waiting for input...
     Reading input from standard input

     Current dimensions of program PWSCF are:
     Max number of different atomic species (ntypx) = 10
     Max number of k-points (npk) =  40000
     Max angular momentum in pseudopotentials (lmaxx) =  4

     Subspace diagonalization in iterative solution of the eigenvalue problem:
     a serial algorithm will be used


     G-vector sticks info
     --------------------
     sticks:   dense  smooth     PW     G-vecs:    dense   smooth      PW
     Sum         163     163     61                 1411     1411     331

     Using Slab Decomposition



     bravais-lattice index     =            2
     lattice parameter (alat)  =       7.7600  a.u.
     unit-cell volume          =     116.8221 (a.u.)^3
     number of atoms/cell      =            1
     number of atomic types    =            1
     number of electrons       =        10.00
     number of Kohn-Sham states=           10
     kinetic-energy cutoff     =      20.0000  Ry
     charge density cutoff     =      80.0000  Ry
     scf convergence threshold =      1.0E-08
     mixing beta               =       0.7000
     number of iterations used =            8  plain     mixing
     Exchange-correlation=  SLA  PZ   NOGX NOGC
                           (   1   1   0   0   0   0   0)
     Non magnetic calculation with spin-orbit


     celldm(1)=   7.760000  celldm(2)=   0.000000  celldm(3)=   0.000000
     celldm(4)=   0.000000  celldm(5)=   0.000000  celldm(6)=   0.000000

     crystal axes: (cart. coord. in units of alat)
               a(1) = (  -0.500000   0.000000   0.500000 )  
               a(2) = (   0.000000   0.500000   0.500000 )  
               a(3) = (  -0.500000   0.500000   0.000000 )  

     reciprocal axes: (cart. coord. in units 2 pi/alat)
               b(1) = ( -1.000000 -1.000000  1.000000 )  
               b(2) = (  1.000000  1.000000  1.000000 )  
               b(3) = ( -1.000000  1.000000 -1.000000 )  


     PseudoPot. # 1 for Pt read from file:
     /home/dashlander/Desktop/Sem7/CPD/Assignment_3/pseudo/Pt.rel-pz-n-rrkjus.UPF
     MD5 check sum: 4baafe8ec1942611396c7a5466f52249
     Pseudo is Ultrasoft + core correction, Zval = 10.0
     Generated by new atomic code, or converted to UPF format
     Using radial grid of 1277 points,  6 beta functions with: 
                l(1) =   2
                l(2) =   2
                l(3) =   2
                l(4) =   2
                l(5) =   1
                l(6) =   1
     Q(r) pseudized with 0 coefficients 


     atomic species   valence    mass     pseudopotential
     Pt               10.00   195.08400     Pt( 1.00)

     48 Sym. Ops., with inversion, found



   Cartesian axes

     site n.     atom                  positions (alat units)
         1        Pt     tau(   1) = (   0.0000000   0.0000000   0.0000000  )

     number of k points=    35
                       cart. coord. in units 2pi/alat
        k(    1) = (   0.0000000   0.0000000   0.0000000), wk =   0.0013717
        k(    2) = (  -0.1111111   0.1111111  -0.1111111), wk =   0.0109739
        k(    3) = (  -0.2222222   0.2222222  -0.2222222), wk =   0.0109739
        k(    4) = (  -0.3333333   0.3333333  -0.3333333), wk =   0.0109739
        k(    5) = (  -0.4444444   0.4444444  -0.4444444), wk =   0.0109739
        k(    6) = (   0.0000000   0.2222222   0.0000000), wk =   0.0082305
        k(    7) = (  -0.1111111   0.3333333  -0.1111111), wk =   0.0329218
        k(    8) = (  -0.2222222   0.4444444  -0.2222222), wk =   0.0329218
        k(    9) = (  -0.3333333   0.5555556  -0.3333333), wk =   0.0329218
        k(   10) = (   0.5555556  -0.3333333   0.5555556), wk =   0.0329218
        k(   11) = (   0.4444444  -0.2222222   0.4444444), wk =   0.0329218
        k(   12) = (   0.3333333  -0.1111111   0.3333333), wk =   0.0329218
        k(   13) = (   0.2222222  -0.0000000   0.2222222), wk =   0.0164609
        k(   14) = (   0.0000000   0.4444444   0.0000000), wk =   0.0082305
        k(   15) = (  -0.1111111   0.5555556  -0.1111111), wk =   0.0329218
        k(   16) = (  -0.2222222   0.6666667  -0.2222222), wk =   0.0329218
        k(   17) = (   0.6666667  -0.2222222   0.6666667), wk =   0.0329218
        k(   18) = (   0.5555556  -0.1111111   0.5555556), wk =   0.0329218
        k(   19) = (   0.4444444   0.0000000   0.4444444), wk =   0.0164609
        k(   20) = (   0.0000000   0.6666667   0.0000000), wk =   0.0082305
        k(   21) = (  -0.1111111   0.7777778  -0.1111111), wk =   0.0329218
        k(   22) = (   0.7777778  -0.1111111   0.7777778), wk =   0.0329218
        k(   23) = (   0.6666667  -0.0000000   0.6666667), wk =   0.0164609
        k(   24) = (   0.0000000   0.8888889   0.0000000), wk =   0.0082305
        k(   25) = (   0.8888889   0.0000000   0.8888889), wk =   0.0164609
        k(   26) = (  -0.2222222   0.4444444   0.0000000), wk =   0.0329218
        k(   27) = (  -0.3333333   0.5555556  -0.1111111), wk =   0.0658436
        k(   28) = (   0.5555556  -0.3333333   0.7777778), wk =   0.0658436
        k(   29) = (  -0.2222222   0.6666667   0.0000000), wk =   0.0329218
        k(   30) = (   0.6666667  -0.2222222   0.8888889), wk =   0.0658436
        k(   31) = (   0.5555556  -0.1111111   0.7777778), wk =   0.0658436
        k(   32) = (   0.4444444   0.0000000   0.6666667), wk =   0.0329218
        k(   33) = (   0.7777778  -0.1111111   1.0000000), wk =   0.0329218
        k(   34) = (   0.6666667  -0.0000000   0.8888889), wk =   0.0329218
        k(   35) = (   0.5555556  -0.1111111   1.0000000), wk =   0.0329218

     Dense  grid:     1411 G-vectors     FFT dimensions: (  15,  15,  15)

     Estimated max dynamical RAM per process >      13.49 MB

     Check: negative core charge=   -0.000058

     Initial potential from superposition of free atoms

     starting charge       9.9999, renormalised to      10.0000

     negative rho (up, down):  2.054E-04 0.000E+00
     Starting wfcs are   12 randomized atomic wfcs

     total cpu time spent up to now is        0.4 secs

     Self-consistent Calculation

     iteration #  1     ecut=    20.00 Ry     beta= 0.70
     Davidson diagonalization with overlap
     ethr =  1.00E-02,  avg # of iterations =  2.0

     Threshold (ethr) on eigenvalues was too large:
     Diagonalizing with lowered threshold

     Davidson diagonalization with overlap
     ethr =  4.19E-05,  avg # of iterations =  6.5

     negative rho (up, down):  2.854E-04 0.000E+00

     total cpu time spent up to now is        1.0 secs

     total energy              =     -69.44656804 Ry
     estimated scf accuracy    <       0.00219685 Ry

     iteration #  2     ecut=    20.00 Ry     beta= 0.70
     Davidson diagonalization with overlap
     ethr =  2.20E-05,  avg # of iterations =  2.3

     negative rho (up, down):  3.077E-04 0.000E+00

     total cpu time spent up to now is        1.2 secs

     total energy              =     -69.44706620 Ry
     estimated scf accuracy    <       0.00026059 Ry

     iteration #  3     ecut=    20.00 Ry     beta= 0.70
     Davidson diagonalization with overlap
     ethr =  2.61E-06,  avg # of iterations =  2.8

     negative rho (up, down):  3.239E-04 0.000E+00

     total cpu time spent up to now is        1.4 secs

     total energy              =     -69.44713694 Ry
     estimated scf accuracy    <       0.00001020 Ry

     iteration #  4     ecut=    20.00 Ry     beta= 0.70
     Davidson diagonalization with overlap
     ethr =  1.02E-07,  avg # of iterations =  5.8

     negative rho (up, down):  3.238E-04 0.000E+00

     total cpu time spent up to now is        1.7 secs

     total energy              =     -69.44714608 Ry
     estimated scf accuracy    <       0.00000170 Ry

     iteration #  5     ecut=    20.00 Ry     beta= 0.70
     Davidson diagonalization with overlap
     ethr =  1.70E-08,  avg # of iterations =  3.9

     negative rho (up, down):  3.239E-04 0.000E+00

     total cpu time spent up to now is        2.0 secs

     total energy              =     -69.44714676 Ry
     estimated scf accuracy    <       0.00000003 Ry

     iteration #  6     ecut=    20.00 Ry     beta= 0.70
     Davidson diagonalization with overlap
     ethr =  3.29E-10,  avg # of iterations =  7.0

     negative rho (up, down):  3.239E-04 0.000E+00

     total cpu time spent up to now is        2.3 secs

     total energy              =     -69.44714682 Ry
     estimated scf accuracy    <       0.00000002 Ry

     iteration #  7     ecut=    20.00 Ry     beta= 0.70
     Davidson diagonalization with overlap
     ethr =  1.98E-10,  avg # of iterations =  1.7

     negative rho (up, down):  3.239E-04 0.000E+00

     total cpu time spent up to now is        2.5 secs

     End of self-consistent calculation

          k = 0.0000 0.0000 0.0000 (   169 PWs)   bands (ev):

     5.4777   5.4777  10.8669  10.8669  10.8669  10.8669  11.8890  11.8890
    13.2711  13.2711

          k =-0.1111 0.1111-0.1111 (   172 PWs)   bands (ev):

     5.9032   5.9032  10.8426  10.8426  10.9428  10.9428  11.9757  11.9757
    13.1353  13.1353

          k =-0.2222 0.2222-0.2222 (   171 PWs)   bands (ev):

     7.0125   7.0125  10.8031  10.8031  11.0030  11.0030  12.2076  12.2076
    13.0315  13.0315

          k =-0.3333 0.3333-0.3333 (   171 PWs)   bands (ev):

     8.0294   8.0294  10.8834  10.8834  11.5510  11.5510  12.0279  12.0279
    13.6159  13.6159

          k =-0.4444 0.4444-0.4444 (   174 PWs)   bands (ev):

     8.2763   8.2763  10.7437  10.7437  11.7702  11.7702  13.5555  13.5555
    14.1966  14.1966

          k = 0.0000 0.2222 0.0000 (   173 PWs)   bands (ev):

     6.0469   6.0469  10.7183  10.7183  11.0667  11.0667  12.0278  12.0278
    12.9952  12.9952

          k =-0.1111 0.3333-0.1111 (   173 PWs)   bands (ev):

     6.9518   6.9518  10.5238  10.5238  11.1782  11.1782  12.3113  12.3113
    12.8445  12.8445

          k =-0.2222 0.4444-0.2222 (   173 PWs)   bands (ev):

     8.1197   8.1197  10.6677  10.6677  11.0458  11.0458  12.2094  12.2094
    13.5127  13.5127

          k =-0.3333 0.5556-0.3333 (   172 PWs)   bands (ev):

     8.5705   8.5705  10.7551  10.7551  11.7043  11.7043  12.1872  12.1872
    14.3779  14.3779

          k = 0.5556-0.3333 0.5556 (   174 PWs)   bands (ev):

     8.6111   8.6111  10.6967  10.6967  11.7579  11.7579  12.7500  12.7500
    14.3444  14.3444

          k = 0.4444-0.2222 0.4444 (   171 PWs)   bands (ev):

     8.5329   8.5329  10.8089  10.8089  11.6106  11.6106  11.9926  11.9926
    13.6824  13.6824

          k = 0.3333-0.1111 0.3333 (   173 PWs)   bands (ev):

     7.7796   7.7796  10.6194  10.6194  11.0899  11.0899  12.2757  12.2757
    12.9096  12.9096

          k = 0.2222-0.0000 0.2222 (   174 PWs)   bands (ev):

     6.5749   6.5749  10.6893  10.6893  11.0763  11.0763  12.1740  12.1740
    12.8745  12.8745

          k = 0.0000 0.4444 0.0000 (   169 PWs)   bands (ev):

     7.5436   7.5436  10.1412  10.1412  11.4040  11.4040  12.6851  12.6851
    12.7823  12.7823

          k =-0.1111 0.5556-0.1111 (   173 PWs)   bands (ev):

     8.4955   8.4955   9.9080   9.9080  11.3260  11.3260  12.8386  12.8386
    13.5271  13.5271

          k =-0.2222 0.6667-0.2222 (   178 PWs)   bands (ev):

     9.0763   9.0763  10.2073  10.2073  11.1942  11.1942  12.6619  12.6619
    14.4686  14.4686

          k = 0.6667-0.2222 0.6667 (   178 PWs)   bands (ev):

     9.2609   9.2609  10.4078  10.4078  11.5020  11.5020  12.4870  12.4870
    14.4019  14.4019

          k = 0.5556-0.1111 0.5556 (   175 PWs)   bands (ev):

     9.4265   9.4265  10.5229  10.5229  11.2488  11.2488  12.3097  12.3097
    13.7230  13.7230

          k = 0.4444 0.0000 0.4444 (   174 PWs)   bands (ev):

     8.9809   8.9809  10.4250  10.4250  10.9832  10.9832  12.3467  12.3467
    12.9955  12.9955

          k = 0.0000 0.6667 0.0000 (   174 PWs)   bands (ev):

     8.6918   8.6918   9.4605   9.4605  12.3308  12.3308  13.6057  13.6057
    13.6522  13.6522

          k =-0.1111 0.7778-0.1111 (   177 PWs)   bands (ev):

     8.8929   8.8929   9.3666   9.3666  12.5606  12.5606  13.6723  13.6723
    14.5653  14.5653

          k = 0.7778-0.1111 0.7778 (   177 PWs)   bands (ev):

     9.1647   9.1647   9.7526   9.7526  12.1039  12.1039  13.3553  13.3553
    14.5897  14.5897

          k = 0.6667-0.0000 0.6667 (   176 PWs)   bands (ev):

     9.5555   9.5555  10.2893  10.2893  11.3912  11.3912  12.8848  12.8848
    14.0787  14.0787

          k = 0.0000 0.8889 0.0000 (   190 PWs)   bands (ev):

     8.6118   8.6118   9.0407   9.0407  14.1187  14.1187  14.2230  14.2230
    15.2403  15.2403

          k = 0.8889 0.0000 0.8889 (   182 PWs)   bands (ev):

     8.7542   8.7542   9.1564   9.1564  13.5130  13.5130  14.0438  14.0438
    14.9589  14.9589

          k =-0.2222 0.4444 0.0000 (   175 PWs)   bands (ev):

     7.9675   7.9675  10.2668  10.2668  11.1513  11.1513  12.6512  12.6512
    12.7965  12.7965

          k =-0.3333 0.5556-0.1111 (   177 PWs)   bands (ev):

     8.9771   8.9771  10.4522  10.4522  10.8741  10.8741  12.4798  12.4798
    13.5757  13.5757

          k = 0.5556-0.3333 0.7778 (   175 PWs)   bands (ev):

     9.1649   9.1649  10.5040  10.5040  11.4634  11.4634  12.3581  12.3581
    14.2509  14.2509

          k =-0.2222 0.6667 0.0000 (   178 PWs)   bands (ev):

     9.1204   9.1204   9.7121   9.7121  11.3698  11.3698  13.4727  13.4727
    13.7036  13.7036

          k = 0.6667-0.2222 0.8889 (   180 PWs)   bands (ev):

     9.4585   9.4585   9.9921   9.9921  11.2391  11.2391  13.1868  13.1868
    14.3773  14.3773

          k = 0.5556-0.1111 0.7778 (   179 PWs)   bands (ev):

     9.7507   9.7507  10.1951  10.1951  11.1253  11.1253  12.8515  12.8515
    14.3052  14.3052

          k = 0.4444 0.0000 0.6667 (   177 PWs)   bands (ev):

     9.9362   9.9362  10.2654  10.2654  10.5942  10.5942  12.8453  12.8453
    13.7507  13.7507

          k = 0.7778-0.1111 1.0000 (   179 PWs)   bands (ev):

     9.0047   9.0047   9.3564   9.3564  12.5899  12.5899  13.8808  13.8808
    14.7697  14.7697

          k = 0.6667-0.0000 0.8889 (   179 PWs)   bands (ev):

     9.3537   9.3537   9.8020   9.8020  11.8442  11.8442  13.3410  13.3410
    14.7188  14.7188

          k = 0.5556-0.1111 1.0000 (   181 PWs)   bands (ev):

     9.7371   9.7371  10.2584  10.2584  10.9227  10.9227  13.0557  13.0557
    14.6812  14.6812

     highest occupied level (ev):    15.2403

!    total energy              =     -69.44714682 Ry
     estimated scf accuracy    <          4.3E-09 Ry

     The total energy is the sum of the following terms:
     one-electron contribution =      13.44829125 Ry
     hartree contribution      =       4.59675040 Ry
     xc contribution           =     -28.40891430 Ry
     ewald contribution        =     -59.08327418 Ry

     convergence has been achieved in   7 iterations

     negative rho (up, down):  3.239E-04 0.000E+00

     Forces acting on atoms (cartesian axes, Ry/au):

     atom    1 type  1   force =     0.00000000    0.00000000    0.00000000

     Total force =     0.000000     Total SCF correction =     0.000000


     Computing stress (Cartesian axis) and pressure


     negative rho (up, down):  3.239E-04 0.000E+00
          total   stress  (Ry/bohr**3)                   (kbar)     P=     -228.45
  -0.00155294   0.00000000   0.00000000         -228.45        0.00        0.00
   0.00000000  -0.00155294  -0.00000000            0.00     -228.45       -0.00
   0.00000000  -0.00000000  -0.00155294            0.00       -0.00     -228.45


     Writing all to output data dir ./platinum.save/ :
     XML data file, charge density, pseudopotentials, collected wavefunctions

     init_run     :      0.24s CPU      0.28s WALL (       1 calls)
     electrons    :      1.93s CPU      2.14s WALL (       1 calls)
     forces       :      0.04s CPU      0.04s WALL (       1 calls)
     stress       :      0.18s CPU      0.18s WALL (       1 calls)

     Called by init_run:
     wfcinit      :      0.06s CPU      0.08s WALL (       1 calls)
     potinit      :      0.01s CPU      0.01s WALL (       1 calls)
     hinit0       :      0.15s CPU      0.18s WALL (       1 calls)

     Called by electrons:
     c_bands      :      1.54s CPU      1.72s WALL (       8 calls)
     sum_band     :      0.30s CPU      0.33s WALL (       8 calls)
     v_of_rho     :      0.00s CPU      0.00s WALL (       8 calls)
     newd         :      0.10s CPU      0.10s WALL (       8 calls)
     mix_rho      :      0.00s CPU      0.00s WALL (       8 calls)

     Called by c_bands:
     init_us_2    :      0.03s CPU      0.03s WALL (     665 calls)
     cegterg      :      1.44s CPU      1.61s WALL (     280 calls)

     Called by *egterg:
     cdiaghg      :      0.09s CPU      0.11s WALL (    1367 calls)
     h_psi        :      0.82s CPU      0.93s WALL (    1437 calls)
     s_psi        :      0.14s CPU      0.15s WALL (    1437 calls)
     g_psi        :      0.01s CPU      0.02s WALL (    1122 calls)

     Called by h_psi:
     h_psi:calbec :      0.11s CPU      0.12s WALL (    1437 calls)
     vloc_psi     :      0.55s CPU      0.63s WALL (    1437 calls)
     add_vuspsi   :      0.14s CPU      0.15s WALL (    1437 calls)

     General routines
     calbec       :      0.15s CPU      0.17s WALL (    1892 calls)
     fft          :      0.01s CPU      0.03s WALL (      89 calls)
     ffts         :      0.00s CPU      0.00s WALL (      32 calls)
     fftw         :      0.41s CPU      0.47s WALL (   46320 calls)

     Parallel routines

     PWSCF        :      2.50s CPU      2.75s WALL


   This run was terminated on:  22: 2:26   4Nov2024            

=------------------------------------------------------------------------------=
   JOB DONE.
=------------------------------------------------------------------------------=
