
     Program PWSCF v.7.3.1 starts on  4Nov2024 at 22: 0:18 

     This program is part of the open-source Quantum ESPRESSO suite
     for quantum simulation of materials; please cite
         "P. Giannozzi et al., J. Phys.:Condens. Matter 21 395502 (2009);
         "P. Giannozzi et al., J. Phys.:Condens. Matter 29 465901 (2017);
         "P. Giannozzi et al., J. Chem. Phys. 152 154105 (2020);
          URL http://www.quantum-espresso.org", 
     in publications or presentations arising from this work. More details at
     http://www.quantum-espresso.org/quote

     Parallel version (MPI), running on     1 processors

     MPI processes distributed on     1 nodes
     11911 MiB available memory on the printing compute node when the environment starts

     Waiting for input...
     Reading input from standard input

     Current dimensions of program PWSCF are:
     Max number of different atomic species (ntypx) = 10
     Max number of k-points (npk) =  40000
     Max angular momentum in pseudopotentials (lmaxx) =  4

     Subspace diagonalization in iterative solution of the eigenvalue problem:
     a serial algorithm will be used


     G-vector sticks info
     --------------------
     sticks:   dense  smooth     PW     G-vecs:    dense   smooth      PW
     Sum         151     151     55                 1139     1139     283

     Using Slab Decomposition



     bravais-lattice index     =            2
     lattice parameter (alat)  =       7.1800  a.u.
     unit-cell volume          =      92.5366 (a.u.)^3
     number of atoms/cell      =            1
     number of atomic types    =            1
     number of electrons       =        10.00
     number of Kohn-Sham states=           10
     kinetic-energy cutoff     =      20.0000  Ry
     charge density cutoff     =      80.0000  Ry
     scf convergence threshold =      1.0E-08
     mixing beta               =       0.7000
     number of iterations used =            8  plain     mixing
     Exchange-correlation=  SLA  PZ   NOGX NOGC
                           (   1   1   0   0   0   0   0)
     Non magnetic calculation with spin-orbit


     celldm(1)=   7.180000  celldm(2)=   0.000000  celldm(3)=   0.000000
     celldm(4)=   0.000000  celldm(5)=   0.000000  celldm(6)=   0.000000

     crystal axes: (cart. coord. in units of alat)
               a(1) = (  -0.500000   0.000000   0.500000 )  
               a(2) = (   0.000000   0.500000   0.500000 )  
               a(3) = (  -0.500000   0.500000   0.000000 )  

     reciprocal axes: (cart. coord. in units 2 pi/alat)
               b(1) = ( -1.000000 -1.000000  1.000000 )  
               b(2) = (  1.000000  1.000000  1.000000 )  
               b(3) = ( -1.000000  1.000000 -1.000000 )  


     PseudoPot. # 1 for Pt read from file:
     /home/dashlander/Desktop/Sem7/CPD/Assignment_3/pseudo/Pt.rel-pz-n-rrkjus.UPF
     MD5 check sum: 4baafe8ec1942611396c7a5466f52249
     Pseudo is Ultrasoft + core correction, Zval = 10.0
     Generated by new atomic code, or converted to UPF format
     Using radial grid of 1277 points,  6 beta functions with: 
                l(1) =   2
                l(2) =   2
                l(3) =   2
                l(4) =   2
                l(5) =   1
                l(6) =   1
     Q(r) pseudized with 0 coefficients 


     atomic species   valence    mass     pseudopotential
     Pt               10.00   195.08400     Pt( 1.00)

     48 Sym. Ops., with inversion, found



   Cartesian axes

     site n.     atom                  positions (alat units)
         1        Pt     tau(   1) = (   0.0000000   0.0000000   0.0000000  )

     number of k points=    35
                       cart. coord. in units 2pi/alat
        k(    1) = (   0.0000000   0.0000000   0.0000000), wk =   0.0013717
        k(    2) = (  -0.1111111   0.1111111  -0.1111111), wk =   0.0109739
        k(    3) = (  -0.2222222   0.2222222  -0.2222222), wk =   0.0109739
        k(    4) = (  -0.3333333   0.3333333  -0.3333333), wk =   0.0109739
        k(    5) = (  -0.4444444   0.4444444  -0.4444444), wk =   0.0109739
        k(    6) = (   0.0000000   0.2222222   0.0000000), wk =   0.0082305
        k(    7) = (  -0.1111111   0.3333333  -0.1111111), wk =   0.0329218
        k(    8) = (  -0.2222222   0.4444444  -0.2222222), wk =   0.0329218
        k(    9) = (  -0.3333333   0.5555556  -0.3333333), wk =   0.0329218
        k(   10) = (   0.5555556  -0.3333333   0.5555556), wk =   0.0329218
        k(   11) = (   0.4444444  -0.2222222   0.4444444), wk =   0.0329218
        k(   12) = (   0.3333333  -0.1111111   0.3333333), wk =   0.0329218
        k(   13) = (   0.2222222  -0.0000000   0.2222222), wk =   0.0164609
        k(   14) = (   0.0000000   0.4444444   0.0000000), wk =   0.0082305
        k(   15) = (  -0.1111111   0.5555556  -0.1111111), wk =   0.0329218
        k(   16) = (  -0.2222222   0.6666667  -0.2222222), wk =   0.0329218
        k(   17) = (   0.6666667  -0.2222222   0.6666667), wk =   0.0329218
        k(   18) = (   0.5555556  -0.1111111   0.5555556), wk =   0.0329218
        k(   19) = (   0.4444444   0.0000000   0.4444444), wk =   0.0164609
        k(   20) = (   0.0000000   0.6666667   0.0000000), wk =   0.0082305
        k(   21) = (  -0.1111111   0.7777778  -0.1111111), wk =   0.0329218
        k(   22) = (   0.7777778  -0.1111111   0.7777778), wk =   0.0329218
        k(   23) = (   0.6666667  -0.0000000   0.6666667), wk =   0.0164609
        k(   24) = (   0.0000000   0.8888889   0.0000000), wk =   0.0082305
        k(   25) = (   0.8888889   0.0000000   0.8888889), wk =   0.0164609
        k(   26) = (  -0.2222222   0.4444444   0.0000000), wk =   0.0329218
        k(   27) = (  -0.3333333   0.5555556  -0.1111111), wk =   0.0658436
        k(   28) = (   0.5555556  -0.3333333   0.7777778), wk =   0.0658436
        k(   29) = (  -0.2222222   0.6666667   0.0000000), wk =   0.0329218
        k(   30) = (   0.6666667  -0.2222222   0.8888889), wk =   0.0658436
        k(   31) = (   0.5555556  -0.1111111   0.7777778), wk =   0.0658436
        k(   32) = (   0.4444444   0.0000000   0.6666667), wk =   0.0329218
        k(   33) = (   0.7777778  -0.1111111   1.0000000), wk =   0.0329218
        k(   34) = (   0.6666667  -0.0000000   0.8888889), wk =   0.0329218
        k(   35) = (   0.5555556  -0.1111111   1.0000000), wk =   0.0329218

     Dense  grid:     1139 G-vectors     FFT dimensions: (  15,  15,  15)

     Estimated max dynamical RAM per process >      11.12 MB

     Check: negative core charge=   -0.000032

     Initial potential from superposition of free atoms

     starting charge       9.9999, renormalised to      10.0000

     negative rho (up, down):  9.384E-05 0.000E+00
     Starting wfcs are   12 randomized atomic wfcs

     total cpu time spent up to now is        0.4 secs

     Self-consistent Calculation

     iteration #  1     ecut=    20.00 Ry     beta= 0.70
     Davidson diagonalization with overlap
     ethr =  1.00E-02,  avg # of iterations =  2.3

     Threshold (ethr) on eigenvalues was too large:
     Diagonalizing with lowered threshold

     Davidson diagonalization with overlap
     c_bands:  1 eigenvalues not converged
     ethr =  1.19E-05,  avg # of iterations =  8.1

     negative rho (up, down):  1.913E-04 0.000E+00

     total cpu time spent up to now is        0.9 secs

     total energy              =     -69.44015183 Ry
     estimated scf accuracy    <       0.00450216 Ry

     iteration #  2     ecut=    20.00 Ry     beta= 0.70
     Davidson diagonalization with overlap
     ethr =  4.50E-05,  avg # of iterations =  2.1

     negative rho (up, down):  2.184E-04 0.000E+00

     total cpu time spent up to now is        1.1 secs

     total energy              =     -69.44131340 Ry
     estimated scf accuracy    <       0.00042235 Ry

     iteration #  3     ecut=    20.00 Ry     beta= 0.70
     Davidson diagonalization with overlap
     ethr =  4.22E-06,  avg # of iterations =  2.1

     negative rho (up, down):  2.375E-04 0.000E+00

     total cpu time spent up to now is        1.3 secs

     total energy              =     -69.44137939 Ry
     estimated scf accuracy    <       0.00001343 Ry

     iteration #  4     ecut=    20.00 Ry     beta= 0.70
     Davidson diagonalization with overlap
     ethr =  1.34E-07,  avg # of iterations =  5.9

     negative rho (up, down):  2.377E-04 0.000E+00

     total cpu time spent up to now is        1.6 secs

     total energy              =     -69.44139457 Ry
     estimated scf accuracy    <       0.00000193 Ry

     iteration #  5     ecut=    20.00 Ry     beta= 0.70
     Davidson diagonalization with overlap
     ethr =  1.93E-08,  avg # of iterations =  3.3

     negative rho (up, down):  2.384E-04 0.000E+00

     total cpu time spent up to now is        1.8 secs

     total energy              =     -69.44139481 Ry
     estimated scf accuracy    <       0.00000020 Ry

     iteration #  6     ecut=    20.00 Ry     beta= 0.70
     Davidson diagonalization with overlap
     ethr =  2.01E-09,  avg # of iterations =  4.6

     negative rho (up, down):  2.385E-04 0.000E+00

     total cpu time spent up to now is        2.0 secs

     total energy              =     -69.44139494 Ry
     estimated scf accuracy    <       0.00000003 Ry

     iteration #  7     ecut=    20.00 Ry     beta= 0.70
     Davidson diagonalization with overlap
     ethr =  2.94E-10,  avg # of iterations =  3.4

     negative rho (up, down):  2.385E-04 0.000E+00

     total cpu time spent up to now is        2.2 secs

     total energy              =     -69.44139495 Ry
     estimated scf accuracy    <       0.00000003 Ry

     iteration #  8     ecut=    20.00 Ry     beta= 0.70
     Davidson diagonalization with overlap
     ethr =  2.79E-10,  avg # of iterations =  2.1

     negative rho (up, down):  2.385E-04 0.000E+00

     total cpu time spent up to now is        2.4 secs

     End of self-consistent calculation

          k = 0.0000 0.0000 0.0000 (   137 PWs)   bands (ev):

     8.7787   8.7787  15.3974  15.3974  15.3974  15.3974  16.3719  16.3719
    18.4958  18.4958

          k =-0.1111 0.1111-0.1111 (   147 PWs)   bands (ev):

     9.3071   9.3071  15.3216  15.3216  15.5300  15.5300  16.5034  16.5034
    18.3064  18.3064

          k =-0.2222 0.2222-0.2222 (   150 PWs)   bands (ev):

    10.6303  10.6303  15.1858  15.1858  15.6386  15.6386  16.8208  16.8208
    18.2269  18.2269

          k =-0.3333 0.3333-0.3333 (   144 PWs)   bands (ev):

    11.6584  11.6584  15.4364  15.4364  16.1920  16.1920  16.5500  16.5500
    19.1134  19.1134

          k =-0.4444 0.4444-0.4444 (   147 PWs)   bands (ev):

    11.8001  11.8001  15.2106  15.2106  16.2160  16.2160  18.5373  18.5373
    19.9518  19.9518

          k = 0.0000 0.2222 0.0000 (   145 PWs)   bands (ev):

     9.4867   9.4867  15.1219  15.1219  15.7163  15.7163  16.6055  16.6055
    18.0233  18.0233

          k =-0.1111 0.3333-0.1111 (   143 PWs)   bands (ev):

    10.5839  10.5839  14.7755  14.7755  15.8855  15.8855  17.0136  17.0136
    17.8373  17.8373

          k =-0.2222 0.4444-0.2222 (   143 PWs)   bands (ev):

    11.8652  11.8652  14.9960  14.9960  15.5829  15.5829  16.8449  16.8449
    18.9340  18.9340

          k =-0.3333 0.5556-0.3333 (   142 PWs)   bands (ev):

    12.2123  12.2123  15.1764  15.1764  16.2616  16.2616  16.8153  16.8153
    20.2474  20.2474

          k = 0.5556-0.3333 0.5556 (   138 PWs)   bands (ev):

    12.2239  12.2239  15.0874  15.0874  16.2469  16.2469  17.5813  17.5813
    20.1639  20.1639

          k = 0.4444-0.2222 0.4444 (   143 PWs)   bands (ev):

    12.2273  12.2273  15.2936  15.2936  16.1879  16.1879  16.5284  16.5284
    19.1366  19.1366

          k = 0.3333-0.1111 0.3333 (   143 PWs)   bands (ev):

    11.5361  11.5361  14.9126  14.9126  15.7114  15.7114  16.9302  16.9302
    17.9671  17.9671

          k = 0.2222-0.0000 0.2222 (   143 PWs)   bands (ev):

    10.1324  10.1324  15.0417  15.0417  15.7398  15.7398  16.8052  16.8052
    17.8849  17.8849

          k = 0.0000 0.4444 0.0000 (   141 PWs)   bands (ev):

    11.2723  11.2723  14.1834  14.1834  16.2141  16.2141  17.6566  17.6566
    17.6598  17.6598

          k =-0.1111 0.5556-0.1111 (   141 PWs)   bands (ev):

    12.2990  12.2990  13.8381  13.8381  15.9682  15.9682  17.8507  17.8507
    18.9579  18.9579

          k =-0.2222 0.6667-0.2222 (   138 PWs)   bands (ev):

    12.8229  12.8229  14.2576  14.2576  15.7063  15.7063  17.5847  17.5847
    20.3954  20.3954

          k = 0.6667-0.2222 0.6667 (   138 PWs)   bands (ev):

    13.0394  13.0394  14.5350  14.5350  16.0454  16.0454  17.2989  17.2989
    20.2490  20.2490

          k = 0.5556-0.1111 0.5556 (   136 PWs)   bands (ev):

    13.3386  13.3386  14.7595  14.7595  15.6169  15.6169  17.1094  17.1094
    19.1706  19.1706

          k = 0.4444 0.0000 0.4444 (   140 PWs)   bands (ev):

    12.9668  12.9668  14.6185  14.6185  15.3826  15.3826  17.1642  17.1642
    18.0342  18.0342

          k = 0.0000 0.6667 0.0000 (   141 PWs)   bands (ev):

    12.3317  12.3317  13.1826  13.1826  17.3774  17.3774  19.0427  19.0427
    19.1526  19.1526

          k =-0.1111 0.7778-0.1111 (   135 PWs)   bands (ev):

    12.4558  12.4558  13.0562  13.0562  17.5753  17.5753  19.1553  19.1553
    20.4779  20.4779

          k = 0.7778-0.1111 0.7778 (   137 PWs)   bands (ev):

    12.7812  12.7812  13.6071  13.6071  16.8752  16.8752  18.6810  18.6810
    20.4856  20.4856

          k = 0.6667-0.0000 0.6667 (   136 PWs)   bands (ev):

    13.3597  13.3597  14.4018  14.4018  15.8159  15.8159  18.0034  18.0034
    19.6844  19.6844

          k = 0.0000 0.8889 0.0000 (   141 PWs)   bands (ev):

    12.0178  12.0178  12.5884  12.5884  19.9828  19.9828  20.1027  20.1027
    20.9765  20.9765

          k = 0.8889 0.0000 0.8889 (   138 PWs)   bands (ev):

    12.1922  12.1922  12.7600  12.7600  18.8704  18.8704  19.8071  19.8071
    20.9281  20.9281

          k =-0.2222 0.4444 0.0000 (   143 PWs)   bands (ev):

    11.7849  11.7849  14.3695  14.3695  15.7511  15.7511  17.5280  17.5280
    17.8158  17.8158

          k =-0.3333 0.5556-0.1111 (   141 PWs)   bands (ev):

    12.8550  12.8550  14.6705  14.6705  15.2067  15.2067  17.3220  17.3220
    18.9711  18.9711

          k = 0.5556-0.3333 0.7778 (   140 PWs)   bands (ev):

    12.9594  12.9594  14.6917  14.6917  15.9923  15.9923  17.0804  17.0804
    20.0142  20.0142

          k =-0.2222 0.6667 0.0000 (   139 PWs)   bands (ev):

    12.9037  12.9037  13.5530  13.5530  15.9503  15.9503  18.8448  18.8448
    19.1603  19.1603

          k = 0.6667-0.2222 0.8889 (   138 PWs)   bands (ev):

    13.2380  13.2380  13.9450  13.9450  15.7000  15.7000  18.3764  18.3764
    20.1928  20.1928

          k = 0.5556-0.1111 0.7778 (   139 PWs)   bands (ev):

    13.6588  13.6588  14.2350  14.2350  15.4858  15.4858  17.8690  17.8690
    20.0798  20.0798

          k = 0.4444 0.0000 0.6667 (   138 PWs)   bands (ev):

    14.0776  14.0776  14.4009  14.4009  14.6332  14.6332  17.8871  17.8871
    19.2204  19.2204

          k = 0.7778-0.1111 1.0000 (   135 PWs)   bands (ev):

    12.5468  12.5468  13.0494  13.0494  17.5660  17.5660  19.4876  19.4876
    20.7224  20.7224

          k = 0.6667-0.0000 0.8889 (   136 PWs)   bands (ev):

    13.0169  13.0169  13.6913  13.6913  16.4995  16.4995  18.6277  18.6277
    20.6948  20.6948

          k = 0.5556-0.1111 1.0000 (   137 PWs)   bands (ev):

    13.5479  13.5479  14.3818  14.3818  15.1869  15.1869  18.1593  18.1593
    20.6650  20.6650

     highest occupied level (ev):    20.9765

!    total energy              =     -69.44139495 Ry
     estimated scf accuracy    <          2.1E-11 Ry

     The total energy is the sum of the following terms:
     one-electron contribution =      19.83455205 Ry
     hartree contribution      =       3.26111648 Ry
     xc contribution           =     -28.68104571 Ry
     ewald contribution        =     -63.85601777 Ry

     convergence has been achieved in   8 iterations

     negative rho (up, down):  2.385E-04 0.000E+00

     Forces acting on atoms (cartesian axes, Ry/au):

     atom    1 type  1   force =     0.00000000    0.00000000    0.00000000

     Total force =     0.000000     Total SCF correction =     0.000000


     Computing stress (Cartesian axis) and pressure


     negative rho (up, down):  2.385E-04 0.000E+00
          total   stress  (Ry/bohr**3)                   (kbar)     P=      450.75
   0.00306413   0.00000000   0.00000000          450.75        0.00        0.00
   0.00000000   0.00306413  -0.00000000            0.00      450.75       -0.00
   0.00000000  -0.00000000   0.00306413            0.00       -0.00      450.75


     Writing all to output data dir ./platinum.save/ :
     XML data file, charge density, pseudopotentials, collected wavefunctions

     init_run     :      0.23s CPU      0.27s WALL (       1 calls)
     electrons    :      1.77s CPU      2.04s WALL (       1 calls)
     forces       :      0.04s CPU      0.04s WALL (       1 calls)
     stress       :      0.14s CPU      0.14s WALL (       1 calls)

     Called by init_run:
     wfcinit      :      0.05s CPU      0.07s WALL (       1 calls)
     potinit      :      0.01s CPU      0.01s WALL (       1 calls)
     hinit0       :      0.16s CPU      0.17s WALL (       1 calls)

     Called by electrons:
     c_bands      :      1.39s CPU      1.63s WALL (       9 calls)
     sum_band     :      0.29s CPU      0.32s WALL (       9 calls)
     v_of_rho     :      0.00s CPU      0.00s WALL (       9 calls)
     newd         :      0.09s CPU      0.10s WALL (       9 calls)
     mix_rho      :      0.00s CPU      0.00s WALL (       9 calls)

     Called by c_bands:
     init_us_2    :      0.02s CPU      0.02s WALL (     735 calls)
     cegterg      :      1.31s CPU      1.54s WALL (     315 calls)

     Called by *egterg:
     cdiaghg      :      0.08s CPU      0.10s WALL (    1465 calls)
     h_psi        :      0.79s CPU      0.94s WALL (    1535 calls)
     s_psi        :      0.12s CPU      0.14s WALL (    1535 calls)
     g_psi        :      0.01s CPU      0.01s WALL (    1185 calls)

     Called by h_psi:
     h_psi:calbec :      0.09s CPU      0.11s WALL (    1535 calls)
     vloc_psi     :      0.56s CPU      0.67s WALL (    1535 calls)
     add_vuspsi   :      0.12s CPU      0.14s WALL (    1535 calls)

     General routines
     calbec       :      0.13s CPU      0.15s WALL (    2025 calls)
     fft          :      0.02s CPU      0.03s WALL (      99 calls)
     ffts         :      0.00s CPU      0.00s WALL (      36 calls)
     fftw         :      0.42s CPU      0.51s WALL (   52064 calls)

     Parallel routines

     PWSCF        :      2.28s CPU      2.59s WALL


   This run was terminated on:  22: 0:20   4Nov2024            

=------------------------------------------------------------------------------=
   JOB DONE.
=------------------------------------------------------------------------------=
