
     Program PWSCF v.7.3.1 starts on  4Nov2024 at 22: 1: 8 

     This program is part of the open-source Quantum ESPRESSO suite
     for quantum simulation of materials; please cite
         "P. Giannozzi et al., J. Phys.:Condens. Matter 21 395502 (2009);
         "P. Giannozzi et al., J. Phys.:Condens. Matter 29 465901 (2017);
         "P. Giannozzi et al., J. Chem. Phys. 152 154105 (2020);
          URL http://www.quantum-espresso.org", 
     in publications or presentations arising from this work. More details at
     http://www.quantum-espresso.org/quote

     Parallel version (MPI), running on     1 processors

     MPI processes distributed on     1 nodes
     11852 MiB available memory on the printing compute node when the environment starts

     Waiting for input...
     Reading input from standard input

     Current dimensions of program PWSCF are:
     Max number of different atomic species (ntypx) = 10
     Max number of k-points (npk) =  40000
     Max angular momentum in pseudopotentials (lmaxx) =  4

     Subspace diagonalization in iterative solution of the eigenvalue problem:
     a serial algorithm will be used


     G-vector sticks info
     --------------------
     sticks:   dense  smooth     PW     G-vecs:    dense   smooth      PW
     Sum         151     151     61                 1243     1243     307

     Using Slab Decomposition



     bravais-lattice index     =            2
     lattice parameter (alat)  =       7.4400  a.u.
     unit-cell volume          =     102.9577 (a.u.)^3
     number of atoms/cell      =            1
     number of atomic types    =            1
     number of electrons       =        10.00
     number of Kohn-Sham states=           10
     kinetic-energy cutoff     =      20.0000  Ry
     charge density cutoff     =      80.0000  Ry
     scf convergence threshold =      1.0E-08
     mixing beta               =       0.7000
     number of iterations used =            8  plain     mixing
     Exchange-correlation=  SLA  PZ   NOGX NOGC
                           (   1   1   0   0   0   0   0)
     Non magnetic calculation with spin-orbit


     celldm(1)=   7.440000  celldm(2)=   0.000000  celldm(3)=   0.000000
     celldm(4)=   0.000000  celldm(5)=   0.000000  celldm(6)=   0.000000

     crystal axes: (cart. coord. in units of alat)
               a(1) = (  -0.500000   0.000000   0.500000 )  
               a(2) = (   0.000000   0.500000   0.500000 )  
               a(3) = (  -0.500000   0.500000   0.000000 )  

     reciprocal axes: (cart. coord. in units 2 pi/alat)
               b(1) = ( -1.000000 -1.000000  1.000000 )  
               b(2) = (  1.000000  1.000000  1.000000 )  
               b(3) = ( -1.000000  1.000000 -1.000000 )  


     PseudoPot. # 1 for Pt read from file:
     /home/dashlander/Desktop/Sem7/CPD/Assignment_3/pseudo/Pt.rel-pz-n-rrkjus.UPF
     MD5 check sum: 4baafe8ec1942611396c7a5466f52249
     Pseudo is Ultrasoft + core correction, Zval = 10.0
     Generated by new atomic code, or converted to UPF format
     Using radial grid of 1277 points,  6 beta functions with: 
                l(1) =   2
                l(2) =   2
                l(3) =   2
                l(4) =   2
                l(5) =   1
                l(6) =   1
     Q(r) pseudized with 0 coefficients 


     atomic species   valence    mass     pseudopotential
     Pt               10.00   195.08400     Pt( 1.00)

     48 Sym. Ops., with inversion, found



   Cartesian axes

     site n.     atom                  positions (alat units)
         1        Pt     tau(   1) = (   0.0000000   0.0000000   0.0000000  )

     number of k points=    35
                       cart. coord. in units 2pi/alat
        k(    1) = (   0.0000000   0.0000000   0.0000000), wk =   0.0013717
        k(    2) = (  -0.1111111   0.1111111  -0.1111111), wk =   0.0109739
        k(    3) = (  -0.2222222   0.2222222  -0.2222222), wk =   0.0109739
        k(    4) = (  -0.3333333   0.3333333  -0.3333333), wk =   0.0109739
        k(    5) = (  -0.4444444   0.4444444  -0.4444444), wk =   0.0109739
        k(    6) = (   0.0000000   0.2222222   0.0000000), wk =   0.0082305
        k(    7) = (  -0.1111111   0.3333333  -0.1111111), wk =   0.0329218
        k(    8) = (  -0.2222222   0.4444444  -0.2222222), wk =   0.0329218
        k(    9) = (  -0.3333333   0.5555556  -0.3333333), wk =   0.0329218
        k(   10) = (   0.5555556  -0.3333333   0.5555556), wk =   0.0329218
        k(   11) = (   0.4444444  -0.2222222   0.4444444), wk =   0.0329218
        k(   12) = (   0.3333333  -0.1111111   0.3333333), wk =   0.0329218
        k(   13) = (   0.2222222  -0.0000000   0.2222222), wk =   0.0164609
        k(   14) = (   0.0000000   0.4444444   0.0000000), wk =   0.0082305
        k(   15) = (  -0.1111111   0.5555556  -0.1111111), wk =   0.0329218
        k(   16) = (  -0.2222222   0.6666667  -0.2222222), wk =   0.0329218
        k(   17) = (   0.6666667  -0.2222222   0.6666667), wk =   0.0329218
        k(   18) = (   0.5555556  -0.1111111   0.5555556), wk =   0.0329218
        k(   19) = (   0.4444444   0.0000000   0.4444444), wk =   0.0164609
        k(   20) = (   0.0000000   0.6666667   0.0000000), wk =   0.0082305
        k(   21) = (  -0.1111111   0.7777778  -0.1111111), wk =   0.0329218
        k(   22) = (   0.7777778  -0.1111111   0.7777778), wk =   0.0329218
        k(   23) = (   0.6666667  -0.0000000   0.6666667), wk =   0.0164609
        k(   24) = (   0.0000000   0.8888889   0.0000000), wk =   0.0082305
        k(   25) = (   0.8888889   0.0000000   0.8888889), wk =   0.0164609
        k(   26) = (  -0.2222222   0.4444444   0.0000000), wk =   0.0329218
        k(   27) = (  -0.3333333   0.5555556  -0.1111111), wk =   0.0658436
        k(   28) = (   0.5555556  -0.3333333   0.7777778), wk =   0.0658436
        k(   29) = (  -0.2222222   0.6666667   0.0000000), wk =   0.0329218
        k(   30) = (   0.6666667  -0.2222222   0.8888889), wk =   0.0658436
        k(   31) = (   0.5555556  -0.1111111   0.7777778), wk =   0.0658436
        k(   32) = (   0.4444444   0.0000000   0.6666667), wk =   0.0329218
        k(   33) = (   0.7777778  -0.1111111   1.0000000), wk =   0.0329218
        k(   34) = (   0.6666667  -0.0000000   0.8888889), wk =   0.0329218
        k(   35) = (   0.5555556  -0.1111111   1.0000000), wk =   0.0329218

     Dense  grid:     1243 G-vectors     FFT dimensions: (  15,  15,  15)

     Estimated max dynamical RAM per process >      12.05 MB

     Check: negative core charge=   -0.000046

     Initial potential from superposition of free atoms

     starting charge       9.9999, renormalised to      10.0000

     negative rho (up, down):  1.545E-04 0.000E+00
     Starting wfcs are   12 randomized atomic wfcs

     total cpu time spent up to now is        0.4 secs

     Self-consistent Calculation

     iteration #  1     ecut=    20.00 Ry     beta= 0.70
     Davidson diagonalization with overlap
     ethr =  1.00E-02,  avg # of iterations =  2.1

     Threshold (ethr) on eigenvalues was too large:
     Diagonalizing with lowered threshold

     Davidson diagonalization with overlap
     ethr =  1.89E-05,  avg # of iterations =  7.6

     negative rho (up, down):  2.414E-04 0.000E+00

     total cpu time spent up to now is        0.9 secs

     total energy              =     -69.45635944 Ry
     estimated scf accuracy    <       0.00412796 Ry

     iteration #  2     ecut=    20.00 Ry     beta= 0.70
     Davidson diagonalization with overlap
     ethr =  4.13E-05,  avg # of iterations =  2.1

     negative rho (up, down):  2.659E-04 0.000E+00

     total cpu time spent up to now is        1.1 secs

     total energy              =     -69.45745884 Ry
     estimated scf accuracy    <       0.00049794 Ry

     iteration #  3     ecut=    20.00 Ry     beta= 0.70
     Davidson diagonalization with overlap
     ethr =  4.98E-06,  avg # of iterations =  2.0

     negative rho (up, down):  2.843E-04 0.000E+00

     total cpu time spent up to now is        1.3 secs

     total energy              =     -69.45753807 Ry
     estimated scf accuracy    <       0.00001519 Ry

     iteration #  4     ecut=    20.00 Ry     beta= 0.70
     Davidson diagonalization with overlap
     ethr =  1.52E-07,  avg # of iterations =  6.4

     negative rho (up, down):  2.844E-04 0.000E+00

     total cpu time spent up to now is        1.6 secs

     total energy              =     -69.45755730 Ry
     estimated scf accuracy    <       0.00000323 Ry

     iteration #  5     ecut=    20.00 Ry     beta= 0.70
     Davidson diagonalization with overlap
     ethr =  3.23E-08,  avg # of iterations =  2.9

     negative rho (up, down):  2.847E-04 0.000E+00

     total cpu time spent up to now is        1.8 secs

     total energy              =     -69.45755793 Ry
     estimated scf accuracy    <       0.00000011 Ry

     iteration #  6     ecut=    20.00 Ry     beta= 0.70
     Davidson diagonalization with overlap
     ethr =  1.06E-09,  avg # of iterations =  6.7

     negative rho (up, down):  2.848E-04 0.000E+00

     total cpu time spent up to now is        2.1 secs

     total energy              =     -69.45755818 Ry
     estimated scf accuracy    <       0.00000005 Ry

     iteration #  7     ecut=    20.00 Ry     beta= 0.70
     Davidson diagonalization with overlap
     ethr =  5.04E-10,  avg # of iterations =  4.7

     negative rho (up, down):  2.848E-04 0.000E+00

     total cpu time spent up to now is        2.4 secs

     total energy              =     -69.45755800 Ry
     estimated scf accuracy    <       0.00000067 Ry

     iteration #  8     ecut=    20.00 Ry     beta= 0.70
     Davidson diagonalization with overlap
     ethr =  5.04E-10,  avg # of iterations =  4.0

     negative rho (up, down):  2.848E-04 0.000E+00

     total cpu time spent up to now is        2.7 secs

     End of self-consistent calculation

          k = 0.0000 0.0000 0.0000 (   169 PWs)   bands (ev):

     7.1529   7.1529  13.2023  13.2023  13.2023  13.2023  14.1976  14.1976
    15.9443  15.9443

          k =-0.1111 0.1111-0.1111 (   159 PWs)   bands (ev):

     7.6326   7.6326  13.1533  13.1533  13.3057  13.3057  14.3058  14.3058
    15.7830  15.7830

          k =-0.2222 0.2222-0.2222 (   153 PWs)   bands (ev):

     8.8545   8.8545  13.0627  13.0627  13.3889  13.3889  14.5813  14.5813
    15.6892  15.6892

          k =-0.3333 0.3333-0.3333 (   153 PWs)   bands (ev):

     9.8898   9.8898  13.2288  13.2288  13.9295  13.9295  14.3560  14.3560
    16.4210  16.4210

          k =-0.4444 0.4444-0.4444 (   156 PWs)   bands (ev):

    10.0915  10.0915  13.0467  13.0467  14.0619  14.0619  16.1141  16.1141
    17.1147  17.1147

          k = 0.0000 0.2222 0.0000 (   161 PWs)   bands (ev):

     7.7938   7.7938  12.9926  12.9926  13.4603  13.4603  14.3813  14.3813
    15.5730  15.5730

          k =-0.1111 0.3333-0.1111 (   158 PWs)   bands (ev):

     8.7978   8.7978  12.7213  12.7213  13.5996  13.5996  14.7289  14.7289
    15.4038  15.4038

          k =-0.2222 0.4444-0.2222 (   153 PWs)   bands (ev):

    10.0341  10.0341  12.8971  12.8971  13.3817  13.3817  14.5924  14.5924
    16.2853  16.2853

          k =-0.3333 0.5556-0.3333 (   151 PWs)   bands (ev):

    10.4440  10.4440  13.0394  13.0394  14.0441  14.0441  14.5590  14.5590
    17.3722  17.3722

          k = 0.5556-0.3333 0.5556 (   160 PWs)   bands (ev):

    10.4716  10.4716  12.9651  12.9651  14.0679  14.0679  15.2231  15.2231
    17.3106  17.3106

          k = 0.4444-0.2222 0.4444 (   154 PWs)   bands (ev):

    10.4295  10.4295  13.1222  13.1222  13.9572  13.9572  14.3242  14.3242
    16.4699  16.4699

          k = 0.3333-0.1111 0.3333 (   155 PWs)   bands (ev):

     9.6934   9.6934  12.8331  12.8331  13.4689  13.4689  14.6695  14.6695
    15.5017  15.5017

          k = 0.2222-0.0000 0.2222 (   159 PWs)   bands (ev):

     8.3820   8.3820  12.9373  12.9373  13.4761  13.4761  14.5556  14.5556
    15.4434  15.4434

          k = 0.0000 0.4444 0.0000 (   153 PWs)   bands (ev):

     9.4419   9.4419  12.2341  12.2341  13.8765  13.8765  15.2368  15.2368
    15.2837  15.2837

          k =-0.1111 0.5556-0.1111 (   156 PWs)   bands (ev):

    10.4409  10.4409  11.9415  11.9415  13.7139  13.7139  15.4068  15.4068
    16.3042  16.3042

          k =-0.2222 0.6667-0.2222 (   153 PWs)   bands (ev):

    11.0070  11.0070  12.2981  12.2981  13.5080  13.5080  15.1863  15.1863
    17.4909  17.4909

          k = 0.6667-0.2222 0.6667 (   155 PWs)   bands (ev):

    11.2097  11.2097  12.5419  12.5419  13.8268  13.8268  14.9559  14.9559
    17.3841  17.3841

          k = 0.5556-0.1111 0.5556 (   155 PWs)   bands (ev):

    11.4378  11.4378  12.7150  12.7150  13.4835  13.4835  14.7742  14.7742
    16.5084  16.5084

          k = 0.4444 0.0000 0.4444 (   154 PWs)   bands (ev):

    11.0142  11.0142  12.5879  12.5879  13.2534  13.2534  14.8183  14.8183
    15.5785  15.5785

          k = 0.0000 0.6667 0.0000 (   153 PWs)   bands (ev):

    10.5662  10.5662  11.3904  11.3904  14.9154  14.9154  16.4038  16.4038
    16.4415  16.4415

          k =-0.1111 0.7778-0.1111 (   156 PWs)   bands (ev):

    10.7350  10.7350  11.2778  11.2778  15.1276  15.1276  16.4766  16.4766
    17.5765  17.5765

          k = 0.7778-0.1111 0.7778 (   160 PWs)   bands (ev):

    11.0382  11.0382  11.7431  11.7431  14.5452  14.5452  16.0823  16.0823
    17.5942  17.5942

          k = 0.6667-0.0000 0.6667 (   164 PWs)   bands (ev):

    11.5246  11.5246  12.4089  12.4089  13.6538  13.6538  15.5096  15.5096
    16.9396  16.9396

          k = 0.0000 0.8889 0.0000 (   154 PWs)   bands (ev):

    10.3775  10.3775  10.8816  10.8816  17.1109  17.1109  17.2339  17.2339
    18.2696  18.2696

          k = 0.8889 0.0000 0.8889 (   154 PWs)   bands (ev):

    10.5366  10.5366  11.0238  11.0238  16.2573  16.2573  16.9878  16.9878
    17.9982  17.9982

          k =-0.2222 0.4444 0.0000 (   154 PWs)   bands (ev):

     9.9112   9.9112  12.3878  12.3878  13.5232  13.5232  15.1513  15.1513
    15.3709  15.3709

          k =-0.3333 0.5556-0.1111 (   151 PWs)   bands (ev):

    10.9647  10.9647  12.6254  12.6254  13.1076  13.1076  14.9636  14.9636
    16.3365  16.3365

          k = 0.5556-0.3333 0.7778 (   159 PWs)   bands (ev):

    11.1177  11.1177  12.6726  12.6726  13.7811  13.7811  14.7812  14.7812
    17.1924  17.1924

          k =-0.2222 0.6667 0.0000 (   150 PWs)   bands (ev):

    11.0675  11.0675  11.6996  11.6996  13.7201  13.7201  16.2221  16.2221
    16.4941  16.4941

          k = 0.6667-0.2222 0.8889 (   157 PWs)   bands (ev):

    11.4123  11.4123  12.0334  12.0334  13.5242  13.5242  15.8445  15.8445
    17.3434  17.3434

          k = 0.5556-0.1111 0.7778 (   156 PWs)   bands (ev):

    11.7725  11.7725  12.2784  12.2784  13.3578  13.3578  15.4240  15.4240
    17.2516  17.2516

          k = 0.4444 0.0000 0.6667 (   154 PWs)   bands (ev):

    12.0616  12.0616  12.4033  12.4033  12.6703  12.6703  15.4296  15.4296
    16.5480  16.5480

          k = 0.7778-0.1111 1.0000 (   157 PWs)   bands (ev):

    10.8391  10.8391  11.2685  11.2685  15.1377  15.1377  16.7481  16.7481
    17.7998  17.7998

          k = 0.6667-0.0000 0.8889 (   158 PWs)   bands (ev):

    11.2517  11.2517  11.8098  11.8098  14.2278  14.2278  16.0489  16.0489
    17.7612  17.7612

          k = 0.5556-0.1111 1.0000 (   155 PWs)   bands (ev):

    11.7105  11.7105  12.3866  12.3866  13.1049  13.1049  15.6712  15.6712
    17.7292  17.7292

     highest occupied level (ev):    18.2696

!    total energy              =     -69.45755814 Ry
     estimated scf accuracy    <          3.4E-13 Ry

     The total energy is the sum of the following terms:
     one-electron contribution =      16.87246386 Ry
     hartree contribution      =       3.83314506 Ry
     xc contribution           =     -28.53867679 Ry
     ewald contribution        =     -61.62449027 Ry

     convergence has been achieved in   8 iterations

     negative rho (up, down):  2.848E-04 0.000E+00

     Forces acting on atoms (cartesian axes, Ry/au):

     atom    1 type  1   force =     0.00000000    0.00000000    0.00000000

     Total force =     0.000000     Total SCF correction =     0.000000


     Computing stress (Cartesian axis) and pressure


     negative rho (up, down):  2.848E-04 0.000E+00
          total   stress  (Ry/bohr**3)                   (kbar)     P=       33.27
   0.00022616  -0.00000000  -0.00000000           33.27       -0.00       -0.00
  -0.00000000   0.00022616   0.00000000           -0.00       33.27        0.00
  -0.00000000   0.00000000   0.00022616           -0.00        0.00       33.27


     Writing all to output data dir ./platinum.save/ :
     XML data file, charge density, pseudopotentials, collected wavefunctions

     init_run     :      0.24s CPU      0.27s WALL (       1 calls)
     electrons    :      2.05s CPU      2.32s WALL (       1 calls)
     forces       :      0.04s CPU      0.04s WALL (       1 calls)
     stress       :      0.15s CPU      0.15s WALL (       1 calls)

     Called by init_run:
     wfcinit      :      0.06s CPU      0.07s WALL (       1 calls)
     potinit      :      0.01s CPU      0.01s WALL (       1 calls)
     hinit0       :      0.16s CPU      0.17s WALL (       1 calls)

     Called by electrons:
     c_bands      :      1.67s CPU      1.90s WALL (       9 calls)
     sum_band     :      0.29s CPU      0.33s WALL (       9 calls)
     v_of_rho     :      0.00s CPU      0.00s WALL (       9 calls)
     newd         :      0.10s CPU      0.10s WALL (       9 calls)
     mix_rho      :      0.00s CPU      0.00s WALL (       9 calls)

     Called by c_bands:
     init_us_2    :      0.02s CPU      0.03s WALL (     735 calls)
     cegterg      :      1.58s CPU      1.80s WALL (     315 calls)

     Called by *egterg:
     cdiaghg      :      0.10s CPU      0.11s WALL (    1626 calls)
     h_psi        :      0.92s CPU      1.05s WALL (    1696 calls)
     s_psi        :      0.14s CPU      0.16s WALL (    1696 calls)
     g_psi        :      0.02s CPU      0.02s WALL (    1346 calls)

     Called by h_psi:
     h_psi:calbec :      0.11s CPU      0.13s WALL (    1696 calls)
     vloc_psi     :      0.64s CPU      0.74s WALL (    1696 calls)
     add_vuspsi   :      0.14s CPU      0.16s WALL (    1696 calls)

     General routines
     calbec       :      0.15s CPU      0.17s WALL (    2186 calls)
     fft          :      0.02s CPU      0.03s WALL (      99 calls)
     ffts         :      0.00s CPU      0.00s WALL (      36 calls)
     fftw         :      0.47s CPU      0.55s WALL (   56720 calls)

     Parallel routines

     PWSCF        :      2.59s CPU      2.89s WALL


   This run was terminated on:  22: 1:11   4Nov2024            

=------------------------------------------------------------------------------=
   JOB DONE.
=------------------------------------------------------------------------------=
