
     Program PWSCF v.7.3.1 starts on  4Nov2024 at 22: 0:29 

     This program is part of the open-source Quantum ESPRESSO suite
     for quantum simulation of materials; please cite
         "P. Giannozzi et al., J. Phys.:Condens. Matter 21 395502 (2009);
         "P. Giannozzi et al., J. Phys.:Condens. Matter 29 465901 (2017);
         "P. Giannozzi et al., J. Chem. Phys. 152 154105 (2020);
          URL http://www.quantum-espresso.org", 
     in publications or presentations arising from this work. More details at
     http://www.quantum-espresso.org/quote

     Parallel version (MPI), running on     1 processors

     MPI processes distributed on     1 nodes
     11898 MiB available memory on the printing compute node when the environment starts

     Waiting for input...
     Reading input from standard input

     Current dimensions of program PWSCF are:
     Max number of different atomic species (ntypx) = 10
     Max number of k-points (npk) =  40000
     Max angular momentum in pseudopotentials (lmaxx) =  4

     Subspace diagonalization in iterative solution of the eigenvalue problem:
     a serial algorithm will be used


     G-vector sticks info
     --------------------
     sticks:   dense  smooth     PW     G-vecs:    dense   smooth      PW
     Sum         151     151     55                 1139     1139     283

     Using Slab Decomposition



     bravais-lattice index     =            2
     lattice parameter (alat)  =       7.2400  a.u.
     unit-cell volume          =      94.8759 (a.u.)^3
     number of atoms/cell      =            1
     number of atomic types    =            1
     number of electrons       =        10.00
     number of Kohn-Sham states=           10
     kinetic-energy cutoff     =      20.0000  Ry
     charge density cutoff     =      80.0000  Ry
     scf convergence threshold =      1.0E-08
     mixing beta               =       0.7000
     number of iterations used =            8  plain     mixing
     Exchange-correlation=  SLA  PZ   NOGX NOGC
                           (   1   1   0   0   0   0   0)
     Non magnetic calculation with spin-orbit


     celldm(1)=   7.240000  celldm(2)=   0.000000  celldm(3)=   0.000000
     celldm(4)=   0.000000  celldm(5)=   0.000000  celldm(6)=   0.000000

     crystal axes: (cart. coord. in units of alat)
               a(1) = (  -0.500000   0.000000   0.500000 )  
               a(2) = (   0.000000   0.500000   0.500000 )  
               a(3) = (  -0.500000   0.500000   0.000000 )  

     reciprocal axes: (cart. coord. in units 2 pi/alat)
               b(1) = ( -1.000000 -1.000000  1.000000 )  
               b(2) = (  1.000000  1.000000  1.000000 )  
               b(3) = ( -1.000000  1.000000 -1.000000 )  


     PseudoPot. # 1 for Pt read from file:
     /home/dashlander/Desktop/Sem7/CPD/Assignment_3/pseudo/Pt.rel-pz-n-rrkjus.UPF
     MD5 check sum: 4baafe8ec1942611396c7a5466f52249
     Pseudo is Ultrasoft + core correction, Zval = 10.0
     Generated by new atomic code, or converted to UPF format
     Using radial grid of 1277 points,  6 beta functions with: 
                l(1) =   2
                l(2) =   2
                l(3) =   2
                l(4) =   2
                l(5) =   1
                l(6) =   1
     Q(r) pseudized with 0 coefficients 


     atomic species   valence    mass     pseudopotential
     Pt               10.00   195.08400     Pt( 1.00)

     48 Sym. Ops., with inversion, found



   Cartesian axes

     site n.     atom                  positions (alat units)
         1        Pt     tau(   1) = (   0.0000000   0.0000000   0.0000000  )

     number of k points=    35
                       cart. coord. in units 2pi/alat
        k(    1) = (   0.0000000   0.0000000   0.0000000), wk =   0.0013717
        k(    2) = (  -0.1111111   0.1111111  -0.1111111), wk =   0.0109739
        k(    3) = (  -0.2222222   0.2222222  -0.2222222), wk =   0.0109739
        k(    4) = (  -0.3333333   0.3333333  -0.3333333), wk =   0.0109739
        k(    5) = (  -0.4444444   0.4444444  -0.4444444), wk =   0.0109739
        k(    6) = (   0.0000000   0.2222222   0.0000000), wk =   0.0082305
        k(    7) = (  -0.1111111   0.3333333  -0.1111111), wk =   0.0329218
        k(    8) = (  -0.2222222   0.4444444  -0.2222222), wk =   0.0329218
        k(    9) = (  -0.3333333   0.5555556  -0.3333333), wk =   0.0329218
        k(   10) = (   0.5555556  -0.3333333   0.5555556), wk =   0.0329218
        k(   11) = (   0.4444444  -0.2222222   0.4444444), wk =   0.0329218
        k(   12) = (   0.3333333  -0.1111111   0.3333333), wk =   0.0329218
        k(   13) = (   0.2222222  -0.0000000   0.2222222), wk =   0.0164609
        k(   14) = (   0.0000000   0.4444444   0.0000000), wk =   0.0082305
        k(   15) = (  -0.1111111   0.5555556  -0.1111111), wk =   0.0329218
        k(   16) = (  -0.2222222   0.6666667  -0.2222222), wk =   0.0329218
        k(   17) = (   0.6666667  -0.2222222   0.6666667), wk =   0.0329218
        k(   18) = (   0.5555556  -0.1111111   0.5555556), wk =   0.0329218
        k(   19) = (   0.4444444   0.0000000   0.4444444), wk =   0.0164609
        k(   20) = (   0.0000000   0.6666667   0.0000000), wk =   0.0082305
        k(   21) = (  -0.1111111   0.7777778  -0.1111111), wk =   0.0329218
        k(   22) = (   0.7777778  -0.1111111   0.7777778), wk =   0.0329218
        k(   23) = (   0.6666667  -0.0000000   0.6666667), wk =   0.0164609
        k(   24) = (   0.0000000   0.8888889   0.0000000), wk =   0.0082305
        k(   25) = (   0.8888889   0.0000000   0.8888889), wk =   0.0164609
        k(   26) = (  -0.2222222   0.4444444   0.0000000), wk =   0.0329218
        k(   27) = (  -0.3333333   0.5555556  -0.1111111), wk =   0.0658436
        k(   28) = (   0.5555556  -0.3333333   0.7777778), wk =   0.0658436
        k(   29) = (  -0.2222222   0.6666667   0.0000000), wk =   0.0329218
        k(   30) = (   0.6666667  -0.2222222   0.8888889), wk =   0.0658436
        k(   31) = (   0.5555556  -0.1111111   0.7777778), wk =   0.0658436
        k(   32) = (   0.4444444   0.0000000   0.6666667), wk =   0.0329218
        k(   33) = (   0.7777778  -0.1111111   1.0000000), wk =   0.0329218
        k(   34) = (   0.6666667  -0.0000000   0.8888889), wk =   0.0329218
        k(   35) = (   0.5555556  -0.1111111   1.0000000), wk =   0.0329218

     Dense  grid:     1139 G-vectors     FFT dimensions: (  15,  15,  15)

     Estimated max dynamical RAM per process >      11.16 MB

     Check: negative core charge=   -0.000041

     Initial potential from superposition of free atoms

     starting charge       9.9999, renormalised to      10.0000

     negative rho (up, down):  1.376E-04 0.000E+00
     Starting wfcs are   12 randomized atomic wfcs

     total cpu time spent up to now is        0.4 secs

     Self-consistent Calculation

     iteration #  1     ecut=    20.00 Ry     beta= 0.70
     Davidson diagonalization with overlap
     ethr =  1.00E-02,  avg # of iterations =  2.3

     Threshold (ethr) on eigenvalues was too large:
     Diagonalizing with lowered threshold

     Davidson diagonalization with overlap
     ethr =  1.34E-05,  avg # of iterations =  7.9

     negative rho (up, down):  2.315E-04 0.000E+00

     total cpu time spent up to now is        0.9 secs

     total energy              =     -69.44661300 Ry
     estimated scf accuracy    <       0.00449495 Ry

     iteration #  2     ecut=    20.00 Ry     beta= 0.70
     Davidson diagonalization with overlap
     ethr =  4.49E-05,  avg # of iterations =  2.1

     negative rho (up, down):  2.582E-04 0.000E+00

     total cpu time spent up to now is        1.1 secs

     total energy              =     -69.44778586 Ry
     estimated scf accuracy    <       0.00045037 Ry

     iteration #  3     ecut=    20.00 Ry     beta= 0.70
     Davidson diagonalization with overlap
     ethr =  4.50E-06,  avg # of iterations =  2.0

     negative rho (up, down):  2.772E-04 0.000E+00

     total cpu time spent up to now is        1.3 secs

     total energy              =     -69.44785664 Ry
     estimated scf accuracy    <       0.00001393 Ry

     iteration #  4     ecut=    20.00 Ry     beta= 0.70
     Davidson diagonalization with overlap
     ethr =  1.39E-07,  avg # of iterations =  6.4

     negative rho (up, down):  2.772E-04 0.000E+00

     total cpu time spent up to now is        1.6 secs

     total energy              =     -69.44787498 Ry
     estimated scf accuracy    <       0.00000199 Ry

     iteration #  5     ecut=    20.00 Ry     beta= 0.70
     Davidson diagonalization with overlap
     ethr =  1.99E-08,  avg # of iterations =  3.4

     negative rho (up, down):  2.779E-04 0.000E+00

     total cpu time spent up to now is        1.8 secs

     total energy              =     -69.44787509 Ry
     estimated scf accuracy    <       0.00000038 Ry

     iteration #  6     ecut=    20.00 Ry     beta= 0.70
     Davidson diagonalization with overlap
     ethr =  3.78E-09,  avg # of iterations =  3.4

     negative rho (up, down):  2.780E-04 0.000E+00

     total cpu time spent up to now is        2.0 secs

     End of self-consistent calculation

          k = 0.0000 0.0000 0.0000 (   137 PWs)   bands (ev):

     8.3815   8.3815  14.8658  14.8658  14.8658  14.8658  15.8449  15.8449
    17.8758  17.8758

          k =-0.1111 0.1111-0.1111 (   153 PWs)   bands (ev):

     8.8959   8.8959  14.7968  14.7968  14.9910  14.9910  15.9705  15.9705
    17.6918  17.6918

          k =-0.2222 0.2222-0.2222 (   150 PWs)   bands (ev):

    10.1953  10.1953  14.6714  14.6714  15.0932  15.0932  16.2777  16.2777
    17.6087  17.6087

          k =-0.3333 0.3333-0.3333 (   144 PWs)   bands (ev):

    11.2281  11.2281  14.9017  14.9017  15.6409  15.6409  16.0183  16.0183
    18.4576  18.4576

          k =-0.4444 0.4444-0.4444 (   147 PWs)   bands (ev):

    11.3856  11.3856  14.6868  14.6868  15.6944  15.6944  17.9457  17.9457
    19.2582  19.2582

          k = 0.0000 0.2222 0.0000 (   145 PWs)   bands (ev):

     9.0723   9.0723  14.6069  14.6069  15.1695  15.1695  16.0658  16.0658
    17.4278  17.4278

          k =-0.1111 0.3333-0.1111 (   146 PWs)   bands (ev):

    10.1461  10.1461  14.2788  14.2788  15.3311  15.3311  16.4593  16.4593
    17.2456  17.2456

          k =-0.2222 0.4444-0.2222 (   145 PWs)   bands (ev):

    11.4182  11.4182  14.4867  14.4867  15.0496  15.0496  16.2982  16.2982
    18.2890  18.2890

          k =-0.3333 0.5556-0.3333 (   147 PWs)   bands (ev):

    11.7828  11.7828  14.6599  14.6599  15.7228  15.7228  16.2656  16.2656
    19.5443  19.5443

          k = 0.5556-0.3333 0.5556 (   146 PWs)   bands (ev):

    11.7985  11.7985  14.5744  14.5744  15.7185  15.7185  17.0060  17.0060
    19.4667  19.4667

          k = 0.4444-0.2222 0.4444 (   146 PWs)   bands (ev):

    11.7901  11.7901  14.7681  14.7681  15.6446  15.6446  15.9934  15.9934
    18.4870  18.4870

          k = 0.3333-0.1111 0.3333 (   145 PWs)   bands (ev):

    11.0853  11.0853  14.4088  14.4088  15.1678  15.1678  16.3818  16.3818
    17.3675  17.3675

          k = 0.2222-0.0000 0.2222 (   145 PWs)   bands (ev):

     9.7035   9.7035  14.5328  14.5328  15.1909  15.1909  16.2595  16.2595
    17.2913  17.2913

          k = 0.0000 0.4444 0.0000 (   149 PWs)   bands (ev):

    10.8228  10.8228  13.7128  13.7128  15.6465  15.6465  17.0705  17.0705
    17.0796  17.0796

          k =-0.1111 0.5556-0.1111 (   141 PWs)   bands (ev):

    11.8465  11.8465  13.3800  13.3800  15.4213  15.4213  17.2564  17.2564
    18.3120  18.3120

          k =-0.2222 0.6667-0.2222 (   143 PWs)   bands (ev):

    12.3825  12.3825  13.7832  13.7832  15.1714  15.1714  17.0014  17.0014
    19.6858  19.6858

          k = 0.6667-0.2222 0.6667 (   138 PWs)   bands (ev):

    12.5962  12.5962  14.0531  14.0531  15.5049  15.5049  16.7297  16.7297
    19.5518  19.5518

          k = 0.5556-0.1111 0.5556 (   144 PWs)   bands (ev):

    12.8766  12.8766  14.2655  14.2655  15.0967  15.0967  16.5423  16.5423
    18.5221  18.5221

          k = 0.4444 0.0000 0.4444 (   144 PWs)   bands (ev):

    12.4892  12.4892  14.1267  14.1267  14.8672  14.8672  16.5942  16.5942
    17.4371  17.4371

          k = 0.0000 0.6667 0.0000 (   141 PWs)   bands (ev):

    11.9038  11.9038  12.7504  12.7504  16.7776  16.7776  18.3996  18.3996
    18.4927  18.4927

          k =-0.1111 0.7778-0.1111 (   139 PWs)   bands (ev):

    12.0399  12.0399  12.6270  12.6270  16.9788  16.9788  18.5034  18.5034
    19.7697  19.7697

          k = 0.7778-0.1111 0.7778 (   140 PWs)   bands (ev):

    12.3607  12.3607  13.1560  13.1560  16.3073  16.3073  18.0490  18.0490
    19.7790  19.7790

          k = 0.6667-0.0000 0.6667 (   142 PWs)   bands (ev):

    12.9167  12.9167  13.9184  13.9184  15.2889  15.2889  17.3970  17.3970
    19.0161  19.0161

          k = 0.0000 0.8889 0.0000 (   142 PWs)   bands (ev):

    11.6219  11.6219  12.1772  12.1772  19.2819  19.2819  19.4062  19.4062
    20.3115  20.3115

          k = 0.8889 0.0000 0.8889 (   142 PWs)   bands (ev):

    11.7929  11.7929  12.3412  12.3412  18.2343  18.2343  19.1196  19.1196
    20.2097  20.2097

          k =-0.2222 0.4444 0.0000 (   143 PWs)   bands (ev):

    11.3265  11.3265  13.8905  13.8905  15.2118  15.2118  16.9500  16.9500
    17.2214  17.2214

          k =-0.3333 0.5556-0.1111 (   143 PWs)   bands (ev):

    12.3948  12.3948  14.1744  14.1744  14.6984  14.6984  16.7487  16.7487
    18.3294  18.3294

          k = 0.5556-0.3333 0.7778 (   141 PWs)   bands (ev):

    12.5126  12.5126  14.2041  14.2041  15.4535  15.4535  16.5217  16.5217
    19.3269  19.3269

          k =-0.2222 0.6667 0.0000 (   141 PWs)   bands (ev):

    12.4581  12.4581  13.1054  13.1054  15.4078  15.4078  18.2062  18.2062
    18.5105  18.5105

          k = 0.6667-0.2222 0.8889 (   143 PWs)   bands (ev):

    12.7965  12.7965  13.4824  13.4824  15.1702  15.1702  17.7603  17.7603
    19.4977  19.4977

          k = 0.5556-0.1111 0.7778 (   143 PWs)   bands (ev):

    13.2032  13.2032  13.7605  13.7605  14.9676  14.9676  17.2746  17.2746
    19.3897  19.3897

          k = 0.4444 0.0000 0.6667 (   144 PWs)   bands (ev):

    13.5870  13.5870  13.9185  13.9185  14.1561  14.1561  17.2895  17.2895
    18.5688  18.5688

          k = 0.7778-0.1111 1.0000 (   143 PWs)   bands (ev):

    12.1341  12.1341  12.6194  12.6194  16.9738  16.9738  18.8186  18.8186
    20.0078  20.0078

          k = 0.6667-0.0000 0.8889 (   140 PWs)   bands (ev):

    12.5909  12.5909  13.2359  13.2359  15.9461  15.9461  18.0004  18.0004
    19.9755  19.9755

          k = 0.5556-0.1111 1.0000 (   147 PWs)   bands (ev):

    13.1042  13.1042  13.8987  13.8987  14.6797  14.6797  17.5537  17.5537
    19.9454  19.9454

     highest occupied level (ev):    20.3115

!    total energy              =     -69.44787525 Ry
     estimated scf accuracy    <          1.0E-08 Ry

     The total energy is the sum of the following terms:
     one-electron contribution =      19.13453126 Ry
     hartree contribution      =       3.38981062 Ry
     xc contribution           =     -28.64539286 Ry
     ewald contribution        =     -63.32682427 Ry

     convergence has been achieved in   6 iterations

     negative rho (up, down):  2.780E-04 0.000E+00

     Forces acting on atoms (cartesian axes, Ry/au):

     atom    1 type  1   force =     0.00000000    0.00000000    0.00000000

     Total force =     0.000000     Total SCF correction =     0.000000


     Computing stress (Cartesian axis) and pressure


     negative rho (up, down):  2.780E-04 0.000E+00
          total   stress  (Ry/bohr**3)                   (kbar)     P=      334.99
   0.00227723   0.00000000   0.00000000          334.99        0.00        0.00
   0.00000000   0.00227723  -0.00000000            0.00      334.99       -0.00
   0.00000000  -0.00000000   0.00227723            0.00       -0.00      334.99


     Writing all to output data dir ./platinum.save/ :
     XML data file, charge density, pseudopotentials, collected wavefunctions

     init_run     :      0.24s CPU      0.27s WALL (       1 calls)
     electrons    :      1.43s CPU      1.61s WALL (       1 calls)
     forces       :      0.03s CPU      0.04s WALL (       1 calls)
     stress       :      0.14s CPU      0.14s WALL (       1 calls)

     Called by init_run:
     wfcinit      :      0.06s CPU      0.07s WALL (       1 calls)
     potinit      :      0.01s CPU      0.01s WALL (       1 calls)
     hinit0       :      0.17s CPU      0.18s WALL (       1 calls)

     Called by electrons:
     c_bands      :      1.13s CPU      1.29s WALL (       7 calls)
     sum_band     :      0.24s CPU      0.25s WALL (       7 calls)
     v_of_rho     :      0.00s CPU      0.00s WALL (       7 calls)
     newd         :      0.07s CPU      0.07s WALL (       7 calls)
     mix_rho      :      0.00s CPU      0.00s WALL (       7 calls)

     Called by c_bands:
     init_us_2    :      0.02s CPU      0.02s WALL (     595 calls)
     cegterg      :      1.06s CPU      1.22s WALL (     245 calls)

     Called by *egterg:
     cdiaghg      :      0.07s CPU      0.08s WALL (    1174 calls)
     h_psi        :      0.64s CPU      0.75s WALL (    1244 calls)
     s_psi        :      0.10s CPU      0.11s WALL (    1244 calls)
     g_psi        :      0.01s CPU      0.01s WALL (     964 calls)

     Called by h_psi:
     h_psi:calbec :      0.08s CPU      0.09s WALL (    1244 calls)
     vloc_psi     :      0.46s CPU      0.54s WALL (    1244 calls)
     add_vuspsi   :      0.10s CPU      0.11s WALL (    1244 calls)

     General routines
     calbec       :      0.11s CPU      0.12s WALL (    1664 calls)
     fft          :      0.03s CPU      0.03s WALL (      79 calls)
     ffts         :      0.00s CPU      0.00s WALL (      28 calls)
     fftw         :      0.34s CPU      0.40s WALL (   41092 calls)

     Parallel routines

     PWSCF        :      1.95s CPU      2.17s WALL


   This run was terminated on:  22: 0:31   4Nov2024            

=------------------------------------------------------------------------------=
   JOB DONE.
=------------------------------------------------------------------------------=
