
     Program PWSCF v.7.3.1 starts on  4Nov2024 at 13:47:30 

     This program is part of the open-source Quantum ESPRESSO suite
     for quantum simulation of materials; please cite
         "P. Giannozzi et al., J. Phys.:Condens. Matter 21 395502 (2009);
         "P. Giannozzi et al., J. Phys.:Condens. Matter 29 465901 (2017);
         "P. Giannozzi et al., J. Chem. Phys. 152 154105 (2020);
          URL http://www.quantum-espresso.org", 
     in publications or presentations arising from this work. More details at
     http://www.quantum-espresso.org/quote

     Parallel version (MPI), running on     1 processors

     MPI processes distributed on     1 nodes
     14481 MiB available memory on the printing compute node when the environment starts

     Waiting for input...
     Reading input from standard input

     Current dimensions of program PWSCF are:
     Max number of different atomic species (ntypx) = 10
     Max number of k-points (npk) =  40000
     Max angular momentum in pseudopotentials (lmaxx) =  4

     Subspace diagonalization in iterative solution of the eigenvalue problem:
     a serial algorithm will be used


     G-vector sticks info
     --------------------
     sticks:   dense  smooth     PW     G-vecs:    dense   smooth      PW
     Sum         301     301    109                 3479     3479     701

     Using Slab Decomposition



     bravais-lattice index     =            2
     lattice parameter (alat)  =       7.3700  a.u.
     unit-cell volume          =     100.0789 (a.u.)^3
     number of atoms/cell      =            1
     number of atomic types    =            1
     number of electrons       =        10.00
     number of Kohn-Sham states=           10
     kinetic-energy cutoff     =      40.0000  Ry
     charge density cutoff     =     160.0000  Ry
     scf convergence threshold =      1.0E-08
     mixing beta               =       0.7000
     number of iterations used =            8  plain     mixing
     Exchange-correlation=  SLA  PZ   NOGX NOGC
                           (   1   1   0   0   0   0   0)
     Non magnetic calculation with spin-orbit


     celldm(1)=   7.370000  celldm(2)=   0.000000  celldm(3)=   0.000000
     celldm(4)=   0.000000  celldm(5)=   0.000000  celldm(6)=   0.000000

     crystal axes: (cart. coord. in units of alat)
               a(1) = (  -0.500000   0.000000   0.500000 )  
               a(2) = (   0.000000   0.500000   0.500000 )  
               a(3) = (  -0.500000   0.500000   0.000000 )  

     reciprocal axes: (cart. coord. in units 2 pi/alat)
               b(1) = ( -1.000000 -1.000000  1.000000 )  
               b(2) = (  1.000000  1.000000  1.000000 )  
               b(3) = ( -1.000000  1.000000 -1.000000 )  


     PseudoPot. # 1 for Pt read from file:
     /home/dashlander/Desktop/Sem7/CPD/Assignment_3/pseudo/Pt.rel-pz-n-rrkjus.UPF
     MD5 check sum: 4baafe8ec1942611396c7a5466f52249
     Pseudo is Ultrasoft + core correction, Zval = 10.0
     Generated by new atomic code, or converted to UPF format
     Using radial grid of 1277 points,  6 beta functions with: 
                l(1) =   2
                l(2) =   2
                l(3) =   2
                l(4) =   2
                l(5) =   1
                l(6) =   1
     Q(r) pseudized with 0 coefficients 


     atomic species   valence    mass     pseudopotential
     Pt               10.00   195.08400     Pt( 1.00)

     48 Sym. Ops., with inversion, found



   Cartesian axes

     site n.     atom                  positions (alat units)
         1        Pt     tau(   1) = (   0.0000000   0.0000000   0.0000000  )

     number of k points=    35
                       cart. coord. in units 2pi/alat
        k(    1) = (   0.0000000   0.0000000   0.0000000), wk =   0.0013717
        k(    2) = (  -0.1111111   0.1111111  -0.1111111), wk =   0.0109739
        k(    3) = (  -0.2222222   0.2222222  -0.2222222), wk =   0.0109739
        k(    4) = (  -0.3333333   0.3333333  -0.3333333), wk =   0.0109739
        k(    5) = (  -0.4444444   0.4444444  -0.4444444), wk =   0.0109739
        k(    6) = (   0.0000000   0.2222222   0.0000000), wk =   0.0082305
        k(    7) = (  -0.1111111   0.3333333  -0.1111111), wk =   0.0329218
        k(    8) = (  -0.2222222   0.4444444  -0.2222222), wk =   0.0329218
        k(    9) = (  -0.3333333   0.5555556  -0.3333333), wk =   0.0329218
        k(   10) = (   0.5555556  -0.3333333   0.5555556), wk =   0.0329218
        k(   11) = (   0.4444444  -0.2222222   0.4444444), wk =   0.0329218
        k(   12) = (   0.3333333  -0.1111111   0.3333333), wk =   0.0329218
        k(   13) = (   0.2222222  -0.0000000   0.2222222), wk =   0.0164609
        k(   14) = (   0.0000000   0.4444444   0.0000000), wk =   0.0082305
        k(   15) = (  -0.1111111   0.5555556  -0.1111111), wk =   0.0329218
        k(   16) = (  -0.2222222   0.6666667  -0.2222222), wk =   0.0329218
        k(   17) = (   0.6666667  -0.2222222   0.6666667), wk =   0.0329218
        k(   18) = (   0.5555556  -0.1111111   0.5555556), wk =   0.0329218
        k(   19) = (   0.4444444   0.0000000   0.4444444), wk =   0.0164609
        k(   20) = (   0.0000000   0.6666667   0.0000000), wk =   0.0082305
        k(   21) = (  -0.1111111   0.7777778  -0.1111111), wk =   0.0329218
        k(   22) = (   0.7777778  -0.1111111   0.7777778), wk =   0.0329218
        k(   23) = (   0.6666667  -0.0000000   0.6666667), wk =   0.0164609
        k(   24) = (   0.0000000   0.8888889   0.0000000), wk =   0.0082305
        k(   25) = (   0.8888889   0.0000000   0.8888889), wk =   0.0164609
        k(   26) = (  -0.2222222   0.4444444   0.0000000), wk =   0.0329218
        k(   27) = (  -0.3333333   0.5555556  -0.1111111), wk =   0.0658436
        k(   28) = (   0.5555556  -0.3333333   0.7777778), wk =   0.0658436
        k(   29) = (  -0.2222222   0.6666667   0.0000000), wk =   0.0329218
        k(   30) = (   0.6666667  -0.2222222   0.8888889), wk =   0.0658436
        k(   31) = (   0.5555556  -0.1111111   0.7777778), wk =   0.0658436
        k(   32) = (   0.4444444   0.0000000   0.6666667), wk =   0.0329218
        k(   33) = (   0.7777778  -0.1111111   1.0000000), wk =   0.0329218
        k(   34) = (   0.6666667  -0.0000000   0.8888889), wk =   0.0329218
        k(   35) = (   0.5555556  -0.1111111   1.0000000), wk =   0.0329218

     Dense  grid:     3479 G-vectors     FFT dimensions: (  24,  24,  24)

     Estimated max dynamical RAM per process >      33.44 MB

     Check: negative core charge=   -0.000016

     Initial potential from superposition of free atoms

     starting charge       9.9999, renormalised to      10.0000
     Starting wfcs are   12 randomized atomic wfcs

     total cpu time spent up to now is        1.0 secs

     Self-consistent Calculation

     iteration #  1     ecut=    40.00 Ry     beta= 0.70
     Davidson diagonalization with overlap
     ethr =  1.00E-02,  avg # of iterations =  2.1

     Threshold (ethr) on eigenvalues was too large:
     Diagonalizing with lowered threshold

     Davidson diagonalization with overlap
     ethr =  1.58E-05,  avg # of iterations =  7.7

     total cpu time spent up to now is        2.9 secs

     total energy              =     -69.46034419 Ry
     estimated scf accuracy    <       0.00487822 Ry

     iteration #  2     ecut=    40.00 Ry     beta= 0.70
     Davidson diagonalization with overlap
     ethr =  4.88E-05,  avg # of iterations =  2.2

     total cpu time spent up to now is        3.6 secs

     total energy              =     -69.46173359 Ry
     estimated scf accuracy    <       0.00062572 Ry

     iteration #  3     ecut=    40.00 Ry     beta= 0.70
     Davidson diagonalization with overlap
     ethr =  6.26E-06,  avg # of iterations =  2.1

     total cpu time spent up to now is        4.2 secs

     total energy              =     -69.46182696 Ry
     estimated scf accuracy    <       0.00002016 Ry

     iteration #  4     ecut=    40.00 Ry     beta= 0.70
     Davidson diagonalization with overlap
     ethr =  2.02E-07,  avg # of iterations =  5.8

     total cpu time spent up to now is        5.1 secs

     total energy              =     -69.46184780 Ry
     estimated scf accuracy    <       0.00000523 Ry

     iteration #  5     ecut=    40.00 Ry     beta= 0.70
     Davidson diagonalization with overlap
     ethr =  5.23E-08,  avg # of iterations =  3.5

     total cpu time spent up to now is        5.8 secs

     total energy              =     -69.46184929 Ry
     estimated scf accuracy    <       0.00000003 Ry

     iteration #  6     ecut=    40.00 Ry     beta= 0.70
     Davidson diagonalization with overlap
     ethr =  3.48E-10,  avg # of iterations =  8.5

     total cpu time spent up to now is        7.0 secs

     End of self-consistent calculation

          k = 0.0000 0.0000 0.0000 (   411 PWs)   bands (ev):

     7.5649   7.5649  13.7469  13.7469  13.7469  13.7469  14.7389  14.7389
    16.5790  16.5790

          k =-0.1111 0.1111-0.1111 (   423 PWs)   bands (ev):

     8.0562   8.0562  13.6920  13.6920  13.8577  13.8577  14.8531  14.8531
    16.4103  16.4103

          k =-0.2222 0.2222-0.2222 (   423 PWs)   bands (ev):

     9.3035   9.3035  13.5918  13.5918  13.9475  13.9475  15.1397  15.1397
    16.3209  16.3209

          k =-0.3333 0.3333-0.3333 (   425 PWs)   bands (ev):

    10.3338  10.3338  13.7769  13.7769  14.4993  14.4993  14.9033  14.9033
    17.0913  17.0913

          k =-0.4444 0.4444-0.4444 (   422 PWs)   bands (ev):

    10.5170  10.5170  13.5836  13.5836  14.5990  14.5990  16.7317  16.7317
    17.8180  17.8180

          k = 0.0000 0.2222 0.0000 (   427 PWs)   bands (ev):

     8.2223   8.2223  13.5213  13.5213  14.0208  14.0208  14.9352  14.9352
    16.1835  16.1835

          k =-0.1111 0.3333-0.1111 (   424 PWs)   bands (ev):

     9.2498   9.2498  13.2316  13.2316  14.1681  14.1681  15.2989  15.2989
    16.0107  16.0107

          k =-0.2222 0.4444-0.2222 (   430 PWs)   bands (ev):

    10.4954  10.4954  13.4213  13.4213  13.9296  13.9296  15.1541  15.1541
    16.9462  16.9462

          k =-0.3333 0.5556-0.3333 (   427 PWs)   bands (ev):

    10.8851  10.8851  13.5712  13.5712  14.5992  14.5992  15.1250  15.1250
    18.0846  18.0846

          k = 0.5556-0.3333 0.5556 (   433 PWs)   bands (ev):

    10.9079  10.9079  13.4928  13.4928  14.6113  14.6113  15.8182  15.8182
    18.0194  18.0194

          k = 0.4444-0.2222 0.4444 (   427 PWs)   bands (ev):

    10.8794  10.8794  13.6620  13.6620  14.5192  14.5192  14.8741  14.8741
    17.1344  17.1344

          k = 0.3333-0.1111 0.3333 (   431 PWs)   bands (ev):

    10.1590  10.1590  13.3512  13.3512  14.0270  14.0270  15.2333  15.2333
    16.1166  16.1166

          k = 0.2222-0.0000 0.2222 (   429 PWs)   bands (ev):

     8.8251   8.8251  13.4604  13.4604  14.0385  14.0385  15.1164  15.1164
    16.0517  16.0517

          k = 0.0000 0.4444 0.0000 (   431 PWs)   bands (ev):

     9.9039   9.9039  12.7170  12.7170  14.4591  14.4591  15.8413  15.8413
    15.8761  15.8761

          k =-0.1111 0.5556-0.1111 (   432 PWs)   bands (ev):

    10.9094  10.9094  12.4113  12.4113  14.2776  14.2776  16.0167  16.0167
    16.9669  16.9669

          k =-0.2222 0.6667-0.2222 (   429 PWs)   bands (ev):

    11.4597  11.4597  12.7873  12.7873  14.0578  14.0578  15.7849  15.7849
    18.2108  18.2108

          k = 0.6667-0.2222 0.6667 (   422 PWs)   bands (ev):

    11.6647  11.6647  13.0402  13.0402  14.3827  14.3827  15.5412  15.5412
    18.0949  18.0949

          k = 0.5556-0.1111 0.5556 (   426 PWs)   bands (ev):

    11.9123  11.9123  13.2256  13.2256  14.0187  14.0187  15.3573  15.3573
    17.1711  17.1711

          k = 0.4444 0.0000 0.4444 (   427 PWs)   bands (ev):

    11.5063  11.5063  13.0938  13.0938  13.7853  13.7853  15.4035  15.4035
    16.1910  16.1910

          k = 0.0000 0.6667 0.0000 (   432 PWs)   bands (ev):

    11.0081  11.0081  11.8324  11.8324  15.5353  15.5353  17.0620  17.0620
    17.1163  17.1163

          k =-0.1111 0.7778-0.1111 (   435 PWs)   bands (ev):

    11.1632  11.1632  11.7168  11.7168  15.7431  15.7431  17.1439  17.1439
    18.2960  18.2960

          k = 0.7778-0.1111 0.7778 (   429 PWs)   bands (ev):

    11.4704  11.4704  12.2069  12.2069  15.1303  15.1303  16.7309  16.7309
    18.3117  18.3117

          k = 0.6667-0.0000 0.6667 (   431 PWs)   bands (ev):

    11.9801  11.9801  12.9085  12.9085  14.1951  14.1951  16.1327  16.1327
    17.6235  17.6235

          k = 0.0000 0.8889 0.0000 (   440 PWs)   bands (ev):

    10.7845  10.7845  11.3010  11.3010  17.8228  17.8228  17.9486  17.9486
    18.9529  18.9529

          k = 0.8889 0.0000 0.8889 (   428 PWs)   bands (ev):

    10.9470  10.9470  11.4516  11.4516  16.9136  16.9136  17.6880  17.6880
    18.7242  18.7242

          k =-0.2222 0.4444 0.0000 (   426 PWs)   bands (ev):

    10.3847  10.3847  12.8798  12.8798  14.0787  14.0787  15.7440  15.7440
    15.9811  15.9811

          k =-0.3333 0.5556-0.1111 (   427 PWs)   bands (ev):

    11.4393  11.4393  13.1361  13.1361  13.6307  13.6307  15.5522  15.5522
    16.9935  16.9935

          k = 0.5556-0.3333 0.7778 (   424 PWs)   bands (ev):

    11.5769  11.5769  13.1761  13.1761  14.3355  14.3355  15.3558  15.3558
    17.8941  17.8941

          k =-0.2222 0.6667 0.0000 (   422 PWs)   bands (ev):

    11.5275  11.5275  12.1583  12.1583  14.2787  14.2787  16.8765  16.8765
    17.1581  17.1581

          k = 0.6667-0.2222 0.8889 (   428 PWs)   bands (ev):

    11.8668  11.8668  12.5096  12.5096  14.0690  14.0690  16.4772  16.4772
    18.0517  18.0517

          k = 0.5556-0.1111 0.7778 (   427 PWs)   bands (ev):

    12.2421  12.2421  12.7677  12.7677  13.8900  13.8900  16.0349  16.0349
    17.9543  17.9543

          k = 0.4444 0.0000 0.6667 (   425 PWs)   bands (ev):

    12.5667  12.5667  12.9016  12.9016  13.1600  13.1600  16.0440  16.0440
    17.2130  17.2130

          k = 0.7778-0.1111 1.0000 (   433 PWs)   bands (ev):

    11.2635  11.2635  11.7081  11.7081  15.7474  15.7474  17.4300  17.4300
    18.5252  18.5252

          k = 0.6667-0.0000 0.8889 (   429 PWs)   bands (ev):

    11.6904  11.6904  12.2775  12.2775  14.7975  14.7975  16.6927  16.6927
    18.4876  18.4876

          k = 0.5556-0.1111 1.0000 (   424 PWs)   bands (ev):

    12.1690  12.1690  12.8842  12.8842  13.6249  13.6249  16.2930  16.2930
    18.4561  18.4561

     highest occupied level (ev):    18.9529

!    total energy              =     -69.46184947 Ry
     estimated scf accuracy    <          4.5E-09 Ry

     The total energy is the sum of the following terms:
     one-electron contribution =      17.64464966 Ry
     hartree contribution      =       3.67212017 Ry
     xc contribution           =     -28.56882180 Ry
     ewald contribution        =     -62.20979751 Ry

     convergence has been achieved in   6 iterations

     Forces acting on atoms (cartesian axes, Ry/au):

     atom    1 type  1   force =     0.00000000    0.00000000    0.00000000

     Total force =     0.000000     Total SCF correction =     0.000000


     Computing stress (Cartesian axis) and pressure

          total   stress  (Ry/bohr**3)                   (kbar)     P=      124.99
   0.00084966  -0.00000000  -0.00000000          124.99       -0.00       -0.00
  -0.00000000   0.00084966   0.00000000           -0.00      124.99        0.00
  -0.00000000   0.00000000   0.00084966           -0.00        0.00      124.99


     Writing all to output data dir ./platinum.save/ :
     XML data file, charge density, pseudopotentials, collected wavefunctions

     init_run     :      0.66s CPU      0.93s WALL (       1 calls)
     electrons    :      5.75s CPU      5.98s WALL (       1 calls)
     forces       :      0.08s CPU      0.08s WALL (       1 calls)
     stress       :      0.42s CPU      0.42s WALL (       1 calls)

     Called by init_run:
     wfcinit      :      0.28s CPU      0.41s WALL (       1 calls)
     potinit      :      0.02s CPU      0.02s WALL (       1 calls)
     hinit0       :      0.34s CPU      0.48s WALL (       1 calls)

     Called by electrons:
     c_bands      :      4.93s CPU      5.12s WALL (       7 calls)
     sum_band     :      0.67s CPU      0.71s WALL (       7 calls)
     v_of_rho     :      0.00s CPU      0.00s WALL (       7 calls)
     newd         :      0.16s CPU      0.16s WALL (       7 calls)
     mix_rho      :      0.01s CPU      0.01s WALL (       7 calls)

     Called by c_bands:
     init_us_2    :      0.06s CPU      0.06s WALL (     595 calls)
     cegterg      :      4.72s CPU      4.90s WALL (     245 calls)

     Called by *egterg:
     cdiaghg      :      0.12s CPU      0.12s WALL (    1328 calls)
     h_psi        :      3.45s CPU      3.70s WALL (    1398 calls)
     s_psi        :      0.32s CPU      0.33s WALL (    1398 calls)
     g_psi        :      0.04s CPU      0.04s WALL (    1118 calls)

     Called by h_psi:
     h_psi:calbec :      0.28s CPU      0.29s WALL (    1398 calls)
     vloc_psi     :      2.83s CPU      3.05s WALL (    1398 calls)
     add_vuspsi   :      0.31s CPU      0.33s WALL (    1398 calls)

     General routines
     calbec       :      0.38s CPU      0.40s WALL (    1818 calls)
     fft          :      0.15s CPU      0.28s WALL (      79 calls)
     ffts         :      0.00s CPU      0.00s WALL (      28 calls)
     fftw         :      2.49s CPU      2.71s WALL (   45076 calls)

     Parallel routines

     PWSCF        :      7.01s CPU      7.52s WALL


   This run was terminated on:  13:47:37   4Nov2024            

=------------------------------------------------------------------------------=
   JOB DONE.
=------------------------------------------------------------------------------=
