
     Program PWSCF v.7.3.1 starts on  4Nov2024 at 13:47: 0 

     This program is part of the open-source Quantum ESPRESSO suite
     for quantum simulation of materials; please cite
         "P. Giannozzi et al., J. Phys.:Condens. Matter 21 395502 (2009);
         "P. Giannozzi et al., J. Phys.:Condens. Matter 29 465901 (2017);
         "P. Giannozzi et al., J. Chem. Phys. 152 154105 (2020);
          URL http://www.quantum-espresso.org", 
     in publications or presentations arising from this work. More details at
     http://www.quantum-espresso.org/quote

     Parallel version (MPI), running on     1 processors

     MPI processes distributed on     1 nodes
     14489 MiB available memory on the printing compute node when the environment starts

     Waiting for input...
     Reading input from standard input

     Current dimensions of program PWSCF are:
     Max number of different atomic species (ntypx) = 10
     Max number of k-points (npk) =  40000
     Max angular momentum in pseudopotentials (lmaxx) =  4

     Subspace diagonalization in iterative solution of the eigenvalue problem:
     a serial algorithm will be used


     G-vector sticks info
     --------------------
     sticks:   dense  smooth     PW     G-vecs:    dense   smooth      PW
     Sum          73      73     37                  411      411     137

     Using Slab Decomposition



     bravais-lattice index     =            2
     lattice parameter (alat)  =       7.3700  a.u.
     unit-cell volume          =     100.0789 (a.u.)^3
     number of atoms/cell      =            1
     number of atomic types    =            1
     number of electrons       =        10.00
     number of Kohn-Sham states=           10
     kinetic-energy cutoff     =      10.0000  Ry
     charge density cutoff     =      40.0000  Ry
     scf convergence threshold =      1.0E-08
     mixing beta               =       0.7000
     number of iterations used =            8  plain     mixing
     Exchange-correlation=  SLA  PZ   NOGX NOGC
                           (   1   1   0   0   0   0   0)
     Non magnetic calculation with spin-orbit


     celldm(1)=   7.370000  celldm(2)=   0.000000  celldm(3)=   0.000000
     celldm(4)=   0.000000  celldm(5)=   0.000000  celldm(6)=   0.000000

     crystal axes: (cart. coord. in units of alat)
               a(1) = (  -0.500000   0.000000   0.500000 )  
               a(2) = (   0.000000   0.500000   0.500000 )  
               a(3) = (  -0.500000   0.500000   0.000000 )  

     reciprocal axes: (cart. coord. in units 2 pi/alat)
               b(1) = ( -1.000000 -1.000000  1.000000 )  
               b(2) = (  1.000000  1.000000  1.000000 )  
               b(3) = ( -1.000000  1.000000 -1.000000 )  


     PseudoPot. # 1 for Pt read from file:
     /home/dashlander/Desktop/Sem7/CPD/Assignment_3/pseudo/Pt.rel-pz-n-rrkjus.UPF
     MD5 check sum: 4baafe8ec1942611396c7a5466f52249
     Pseudo is Ultrasoft + core correction, Zval = 10.0
     Generated by new atomic code, or converted to UPF format
     Using radial grid of 1277 points,  6 beta functions with: 
                l(1) =   2
                l(2) =   2
                l(3) =   2
                l(4) =   2
                l(5) =   1
                l(6) =   1
     Q(r) pseudized with 0 coefficients 


     atomic species   valence    mass     pseudopotential
     Pt               10.00   195.08400     Pt( 1.00)

     48 Sym. Ops., with inversion, found



   Cartesian axes

     site n.     atom                  positions (alat units)
         1        Pt     tau(   1) = (   0.0000000   0.0000000   0.0000000  )

     number of k points=    35
                       cart. coord. in units 2pi/alat
        k(    1) = (   0.0000000   0.0000000   0.0000000), wk =   0.0013717
        k(    2) = (  -0.1111111   0.1111111  -0.1111111), wk =   0.0109739
        k(    3) = (  -0.2222222   0.2222222  -0.2222222), wk =   0.0109739
        k(    4) = (  -0.3333333   0.3333333  -0.3333333), wk =   0.0109739
        k(    5) = (  -0.4444444   0.4444444  -0.4444444), wk =   0.0109739
        k(    6) = (   0.0000000   0.2222222   0.0000000), wk =   0.0082305
        k(    7) = (  -0.1111111   0.3333333  -0.1111111), wk =   0.0329218
        k(    8) = (  -0.2222222   0.4444444  -0.2222222), wk =   0.0329218
        k(    9) = (  -0.3333333   0.5555556  -0.3333333), wk =   0.0329218
        k(   10) = (   0.5555556  -0.3333333   0.5555556), wk =   0.0329218
        k(   11) = (   0.4444444  -0.2222222   0.4444444), wk =   0.0329218
        k(   12) = (   0.3333333  -0.1111111   0.3333333), wk =   0.0329218
        k(   13) = (   0.2222222  -0.0000000   0.2222222), wk =   0.0164609
        k(   14) = (   0.0000000   0.4444444   0.0000000), wk =   0.0082305
        k(   15) = (  -0.1111111   0.5555556  -0.1111111), wk =   0.0329218
        k(   16) = (  -0.2222222   0.6666667  -0.2222222), wk =   0.0329218
        k(   17) = (   0.6666667  -0.2222222   0.6666667), wk =   0.0329218
        k(   18) = (   0.5555556  -0.1111111   0.5555556), wk =   0.0329218
        k(   19) = (   0.4444444   0.0000000   0.4444444), wk =   0.0164609
        k(   20) = (   0.0000000   0.6666667   0.0000000), wk =   0.0082305
        k(   21) = (  -0.1111111   0.7777778  -0.1111111), wk =   0.0329218
        k(   22) = (   0.7777778  -0.1111111   0.7777778), wk =   0.0329218
        k(   23) = (   0.6666667  -0.0000000   0.6666667), wk =   0.0164609
        k(   24) = (   0.0000000   0.8888889   0.0000000), wk =   0.0082305
        k(   25) = (   0.8888889   0.0000000   0.8888889), wk =   0.0164609
        k(   26) = (  -0.2222222   0.4444444   0.0000000), wk =   0.0329218
        k(   27) = (  -0.3333333   0.5555556  -0.1111111), wk =   0.0658436
        k(   28) = (   0.5555556  -0.3333333   0.7777778), wk =   0.0658436
        k(   29) = (  -0.2222222   0.6666667   0.0000000), wk =   0.0329218
        k(   30) = (   0.6666667  -0.2222222   0.8888889), wk =   0.0658436
        k(   31) = (   0.5555556  -0.1111111   0.7777778), wk =   0.0658436
        k(   32) = (   0.4444444   0.0000000   0.6666667), wk =   0.0329218
        k(   33) = (   0.7777778  -0.1111111   1.0000000), wk =   0.0329218
        k(   34) = (   0.6666667  -0.0000000   0.8888889), wk =   0.0329218
        k(   35) = (   0.5555556  -0.1111111   1.0000000), wk =   0.0329218

     Dense  grid:      411 G-vectors     FFT dimensions: (  12,  12,  12)

     Estimated max dynamical RAM per process >       4.38 MB

     Check: negative core charge=   -0.000513

     Initial potential from superposition of free atoms

     starting charge       9.9999, renormalised to      10.0000

     negative rho (up, down):  7.648E-03 0.000E+00
     Starting wfcs are   12 randomized atomic wfcs

     total cpu time spent up to now is        0.3 secs

     Self-consistent Calculation

     iteration #  1     ecut=    10.00 Ry     beta= 0.70
     Davidson diagonalization with overlap
     ethr =  1.00E-02,  avg # of iterations =  2.4

     negative rho (up, down):  6.151E-03 0.000E+00

     total cpu time spent up to now is        0.4 secs

     total energy              =     -68.52608932 Ry
     estimated scf accuracy    <       0.26310622 Ry

     iteration #  2     ecut=    10.00 Ry     beta= 0.70
     Davidson diagonalization with overlap
     ethr =  2.63E-03,  avg # of iterations =  2.1

     negative rho (up, down):  6.026E-03 0.000E+00

     total cpu time spent up to now is        0.5 secs

     total energy              =     -68.57465814 Ry
     estimated scf accuracy    <       0.00443679 Ry

     iteration #  3     ecut=    10.00 Ry     beta= 0.70
     Davidson diagonalization with overlap
     ethr =  4.44E-05,  avg # of iterations =  4.4

     negative rho (up, down):  5.986E-03 0.000E+00

     total cpu time spent up to now is        0.7 secs

     total energy              =     -68.57728980 Ry
     estimated scf accuracy    <       0.00060972 Ry

     iteration #  4     ecut=    10.00 Ry     beta= 0.70
     Davidson diagonalization with overlap
     ethr =  6.10E-06,  avg # of iterations =  3.2

     negative rho (up, down):  5.970E-03 0.000E+00

     total cpu time spent up to now is        0.8 secs

     total energy              =     -68.57739481 Ry
     estimated scf accuracy    <       0.00004354 Ry

     iteration #  5     ecut=    10.00 Ry     beta= 0.70
     Davidson diagonalization with overlap
     ethr =  4.35E-07,  avg # of iterations =  3.5

     negative rho (up, down):  5.977E-03 0.000E+00

     total cpu time spent up to now is        0.9 secs

     total energy              =     -68.57741178 Ry
     estimated scf accuracy    <       0.00000893 Ry

     iteration #  6     ecut=    10.00 Ry     beta= 0.70
     Davidson diagonalization with overlap
     ethr =  8.93E-08,  avg # of iterations =  3.6

     negative rho (up, down):  5.974E-03 0.000E+00

     total cpu time spent up to now is        1.0 secs

     total energy              =     -68.57741441 Ry
     estimated scf accuracy    <       0.00000329 Ry

     iteration #  7     ecut=    10.00 Ry     beta= 0.70
     Davidson diagonalization with overlap
     ethr =  3.29E-08,  avg # of iterations =  2.3

     negative rho (up, down):  5.974E-03 0.000E+00

     total cpu time spent up to now is        1.1 secs

     total energy              =     -68.57741520 Ry
     estimated scf accuracy    <       0.00000008 Ry

     iteration #  8     ecut=    10.00 Ry     beta= 0.70
     Davidson diagonalization with overlap
     ethr =  7.57E-10,  avg # of iterations =  5.5

     negative rho (up, down):  5.974E-03 0.000E+00

     total cpu time spent up to now is        1.3 secs

     End of self-consistent calculation

          k = 0.0000 0.0000 0.0000 (    59 PWs)   bands (ev):

     7.9115   7.9115  12.4822  12.4822  12.4822  12.4822  13.7002  13.7002
    15.9385  15.9385

          k =-0.1111 0.1111-0.1111 (    59 PWs)   bands (ev):

     8.3968   8.3968  12.5166  12.5166  12.6315  12.6315  13.8615  13.8615
    15.8287  15.8287

          k =-0.2222 0.2222-0.2222 (    58 PWs)   bands (ev):

     9.5583   9.5583  12.8641  12.8641  12.9810  12.9810  14.3238  14.3238
    15.9019  15.9019

          k =-0.3333 0.3333-0.3333 (    58 PWs)   bands (ev):

    10.3980  10.3980  12.6008  12.6008  13.9526  13.9526  14.6295  14.6295
    16.8936  16.8936

          k =-0.4444 0.4444-0.4444 (    52 PWs)   bands (ev):

    10.1831  10.1831  12.8324  12.8324  14.1311  14.1311  17.1586  17.1586
    19.1529  19.1529

          k = 0.0000 0.2222 0.0000 (    59 PWs)   bands (ev):

     8.5649   8.5649  12.3233  12.3233  12.8480  12.8480  13.9674  13.9674
    15.6535  15.6535

          k =-0.1111 0.3333-0.1111 (    59 PWs)   bands (ev):

     9.5497   9.5497  12.3123  12.3123  13.1270  13.1270  14.4756  14.4756
    15.3225  15.3225

          k =-0.2222 0.4444-0.2222 (    52 PWs)   bands (ev):

    10.6600  10.6600  12.9258  12.9258  13.6082  13.6082  14.8888  14.8888
    17.3098  17.3098

          k =-0.3333 0.5556-0.3333 (    52 PWs)   bands (ev):

    10.6711  10.6711  12.9579  12.9579  14.4979  14.4979  15.1955  15.1955
    19.1834  19.1834

          k = 0.5556-0.3333 0.5556 (    54 PWs)   bands (ev):

    10.5286  10.5286  12.8622  12.8622  14.2019  14.2019  16.1421  16.1421
    19.1178  19.1178

          k = 0.4444-0.2222 0.4444 (    55 PWs)   bands (ev):

    10.7928  10.7928  12.8138  12.8138  14.2041  14.2041  14.8003  14.8003
    16.9567  16.9567

          k = 0.3333-0.1111 0.3333 (    57 PWs)   bands (ev):

    10.3913  10.3913  12.7984  12.7984  13.1849  13.1849  14.4352  14.4352
    15.5712  15.5712

          k = 0.2222-0.0000 0.2222 (    57 PWs)   bands (ev):

     9.1511   9.1511  12.7522  12.7522  13.0726  13.0726  14.3844  14.3844
    15.6156  15.6156

          k = 0.0000 0.4444 0.0000 (    52 PWs)   bands (ev):

    10.1917  10.1917  12.0166  12.0166  14.3827  14.3827  15.9515  15.9515
    16.2451  16.2451

          k =-0.1111 0.5556-0.1111 (    53 PWs)   bands (ev):

    11.0326  11.0326  11.7377  11.7377  14.0512  14.0512  15.9518  15.9518
    17.0777  17.0777

          k =-0.2222 0.6667-0.2222 (    49 PWs)   bands (ev):

    11.2885  11.2885  12.6585  12.6585  13.9969  13.9969  15.7028  15.7028
    19.8482  19.8482

          k = 0.6667-0.2222 0.6667 (    53 PWs)   bands (ev):

    11.2486  11.2486  12.7389  12.7389  14.2537  14.2537  15.5096  15.5096
    19.1743  19.1743

          k = 0.5556-0.1111 0.5556 (    54 PWs)   bands (ev):

    11.6420  11.6420  12.7468  12.7468  14.1146  14.1146  15.0513  15.0513
    17.4196  17.4196

          k = 0.4444 0.0000 0.4444 (    55 PWs)   bands (ev):

    11.6737  11.6737  12.6405  12.6405  13.1559  13.1559  14.9099  14.9099
    15.5910  15.5910

          k = 0.0000 0.6667 0.0000 (    52 PWs)   bands (ev):

    10.9839  10.9839  11.0984  11.0984  15.6521  15.6521  17.1863  17.1863
    17.4896  17.4896

          k =-0.1111 0.7778-0.1111 (    50 PWs)   bands (ev):

    10.9309  10.9309  11.2647  11.2647  16.1288  16.1288  17.3621  17.3621
    19.3747  19.3747

          k = 0.7778-0.1111 0.7778 (    54 PWs)   bands (ev):

    10.9594  10.9594  11.7665  11.7665  15.2212  15.2212  16.8683  16.8683
    18.5633  18.5633

          k = 0.6667-0.0000 0.6667 (    52 PWs)   bands (ev):

    11.5356  11.5356  12.6756  12.6756  14.4079  14.4079  16.3847  16.3847
    17.8089  17.8089

          k = 0.0000 0.8889 0.0000 (    56 PWs)   bands (ev):

    10.3008  10.3008  10.6209  10.6209  17.9710  17.9710  18.2010  18.2010
    19.3413  19.3413

          k = 0.8889 0.0000 0.8889 (    56 PWs)   bands (ev):

    10.4344  10.4344  10.8087  10.8087  16.9839  16.9839  17.8497  17.8497
    18.9997  18.9997

          k =-0.2222 0.4444 0.0000 (    56 PWs)   bands (ev):

    10.6564  10.6564  12.1622  12.1622  13.2360  13.2360  15.2054  15.2054
    15.7384  15.7384

          k =-0.3333 0.5556-0.1111 (    50 PWs)   bands (ev):

    11.5267  11.5267  12.8644  12.8644  13.5040  13.5040  15.5306  15.5306
    17.5236  17.5236

          k = 0.5556-0.3333 0.7778 (    55 PWs)   bands (ev):

    11.2350  11.2350  12.6877  12.6877  14.1281  14.1281  15.0612  15.0612
    18.4263  18.4263

          k =-0.2222 0.6667 0.0000 (    50 PWs)   bands (ev):

    11.5319  11.5319  11.6110  11.6110  14.3290  14.3290  17.0759  17.0759
    17.6694  17.6694

          k = 0.6667-0.2222 0.8889 (    53 PWs)   bands (ev):

    11.4478  11.4478  12.1835  12.1835  13.9526  13.9526  16.7032  16.7032
    18.6790  18.6790

          k = 0.5556-0.1111 0.7778 (    53 PWs)   bands (ev):

    11.7983  11.7983  12.5515  12.5515  13.7845  13.7845  16.0218  16.0218
    18.5995  18.5995

          k = 0.4444 0.0000 0.6667 (    54 PWs)   bands (ev):

    12.2086  12.2086  12.5893  12.5893  13.0986  13.0986  16.0193  16.0193
    17.2881  17.2881

          k = 0.7778-0.1111 1.0000 (    53 PWs)   bands (ev):

    10.8446  10.8446  11.1741  11.1741  15.9129  15.9129  17.7883  17.7883
    19.4015  19.4015

          k = 0.6667-0.0000 0.8889 (    52 PWs)   bands (ev):

    11.2976  11.2976  11.8417  11.8417  14.8933  14.8933  17.0622  17.0622
    19.3994  19.3994

          k = 0.5556-0.1111 1.0000 (    51 PWs)   bands (ev):

    11.9143  11.9143  12.5179  12.5179  13.5296  13.5296  16.5042  16.5042
    19.9861  19.9861

     highest occupied level (ev):    19.9861

!    total energy              =     -68.57741528 Ry
     estimated scf accuracy    <          3.9E-09 Ry

     The total energy is the sum of the following terms:
     one-electron contribution =      18.83926704 Ry
     hartree contribution      =       2.76123710 Ry
     xc contribution           =     -27.96812192 Ry
     ewald contribution        =     -62.20979751 Ry

     convergence has been achieved in   8 iterations

     negative rho (up, down):  5.974E-03 0.000E+00

     Forces acting on atoms (cartesian axes, Ry/au):

     atom    1 type  1   force =     0.00000000    0.00000000    0.00000000

     Total force =     0.000000     Total SCF correction =     0.000000


     Computing stress (Cartesian axis) and pressure


     negative rho (up, down):  5.974E-03 0.000E+00
          total   stress  (Ry/bohr**3)                   (kbar)     P=    -3848.86
  -0.02616405   0.00000000  -0.00000000        -3848.86        0.00       -0.00
  -0.00000000  -0.02616405  -0.00000000           -0.00    -3848.86       -0.00
  -0.00000000  -0.00000000  -0.02616405           -0.00       -0.00    -3848.86


     Writing all to output data dir ./platinum.save/ :
     XML data file, charge density, pseudopotentials, collected wavefunctions

     init_run     :      0.17s CPU      0.21s WALL (       1 calls)
     electrons    :      0.73s CPU      0.99s WALL (       1 calls)
     forces       :      0.02s CPU      0.02s WALL (       1 calls)
     stress       :      0.05s CPU      0.05s WALL (       1 calls)

     Called by init_run:
     wfcinit      :      0.03s CPU      0.05s WALL (       1 calls)
     potinit      :      0.01s CPU      0.01s WALL (       1 calls)
     hinit0       :      0.12s CPU      0.14s WALL (       1 calls)

     Called by electrons:
     c_bands      :      0.50s CPU      0.72s WALL (       8 calls)
     sum_band     :      0.18s CPU      0.21s WALL (       8 calls)
     v_of_rho     :      0.00s CPU      0.00s WALL (       9 calls)
     newd         :      0.06s CPU      0.06s WALL (       9 calls)
     mix_rho      :      0.00s CPU      0.00s WALL (       8 calls)

     Called by c_bands:
     init_us_2    :      0.01s CPU      0.01s WALL (     665 calls)
     cegterg      :      0.48s CPU      0.69s WALL (     280 calls)

     Called by *egterg:
     cdiaghg      :      0.06s CPU      0.08s WALL (    1228 calls)
     h_psi        :      0.30s CPU      0.45s WALL (    1263 calls)
     s_psi        :      0.04s CPU      0.06s WALL (    1263 calls)
     g_psi        :      0.00s CPU      0.01s WALL (     948 calls)

     Called by h_psi:
     h_psi:calbec :      0.03s CPU      0.04s WALL (    1263 calls)
     vloc_psi     :      0.22s CPU      0.34s WALL (    1263 calls)
     add_vuspsi   :      0.04s CPU      0.06s WALL (    1263 calls)

     General routines
     calbec       :      0.04s CPU      0.05s WALL (    1718 calls)
     fft          :      0.02s CPU      0.04s WALL (      95 calls)
     ffts         :      0.00s CPU      0.00s WALL (      32 calls)
     fftw         :      0.16s CPU      0.24s WALL (   42436 calls)

     Parallel routines

     PWSCF        :      1.07s CPU      1.38s WALL


   This run was terminated on:  13:47: 1   4Nov2024            

=------------------------------------------------------------------------------=
   JOB DONE.
=------------------------------------------------------------------------------=
