
     Program PWSCF v.7.3.1 starts on  4Nov2024 at 22: 2:47 

     This program is part of the open-source Quantum ESPRESSO suite
     for quantum simulation of materials; please cite
         "P. Giannozzi et al., J. Phys.:Condens. Matter 21 395502 (2009);
         "P. Giannozzi et al., J. Phys.:Condens. Matter 29 465901 (2017);
         "P. Giannozzi et al., J. Chem. Phys. 152 154105 (2020);
          URL http://www.quantum-espresso.org", 
     in publications or presentations arising from this work. More details at
     http://www.quantum-espresso.org/quote

     Parallel version (MPI), running on     1 processors

     MPI processes distributed on     1 nodes
     11801 MiB available memory on the printing compute node when the environment starts

     Waiting for input...
     Reading input from standard input

     Current dimensions of program PWSCF are:
     Max number of different atomic species (ntypx) = 10
     Max number of k-points (npk) =  40000
     Max angular momentum in pseudopotentials (lmaxx) =  4

     Subspace diagonalization in iterative solution of the eigenvalue problem:
     a serial algorithm will be used


     G-vector sticks info
     --------------------
     sticks:   dense  smooth     PW     G-vecs:    dense   smooth      PW
     Sum         163     163     61                 1459     1459     331

     Using Slab Decomposition



     bravais-lattice index     =            2
     lattice parameter (alat)  =       7.8800  a.u.
     unit-cell volume          =     122.3260 (a.u.)^3
     number of atoms/cell      =            1
     number of atomic types    =            1
     number of electrons       =        10.00
     number of Kohn-Sham states=           10
     kinetic-energy cutoff     =      20.0000  Ry
     charge density cutoff     =      80.0000  Ry
     scf convergence threshold =      1.0E-08
     mixing beta               =       0.7000
     number of iterations used =            8  plain     mixing
     Exchange-correlation=  SLA  PZ   NOGX NOGC
                           (   1   1   0   0   0   0   0)
     Non magnetic calculation with spin-orbit


     celldm(1)=   7.880000  celldm(2)=   0.000000  celldm(3)=   0.000000
     celldm(4)=   0.000000  celldm(5)=   0.000000  celldm(6)=   0.000000

     crystal axes: (cart. coord. in units of alat)
               a(1) = (  -0.500000   0.000000   0.500000 )  
               a(2) = (   0.000000   0.500000   0.500000 )  
               a(3) = (  -0.500000   0.500000   0.000000 )  

     reciprocal axes: (cart. coord. in units 2 pi/alat)
               b(1) = ( -1.000000 -1.000000  1.000000 )  
               b(2) = (  1.000000  1.000000  1.000000 )  
               b(3) = ( -1.000000  1.000000 -1.000000 )  


     PseudoPot. # 1 for Pt read from file:
     /home/dashlander/Desktop/Sem7/CPD/Assignment_3/pseudo/Pt.rel-pz-n-rrkjus.UPF
     MD5 check sum: 4baafe8ec1942611396c7a5466f52249
     Pseudo is Ultrasoft + core correction, Zval = 10.0
     Generated by new atomic code, or converted to UPF format
     Using radial grid of 1277 points,  6 beta functions with: 
                l(1) =   2
                l(2) =   2
                l(3) =   2
                l(4) =   2
                l(5) =   1
                l(6) =   1
     Q(r) pseudized with 0 coefficients 


     atomic species   valence    mass     pseudopotential
     Pt               10.00   195.08400     Pt( 1.00)

     48 Sym. Ops., with inversion, found



   Cartesian axes

     site n.     atom                  positions (alat units)
         1        Pt     tau(   1) = (   0.0000000   0.0000000   0.0000000  )

     number of k points=    35
                       cart. coord. in units 2pi/alat
        k(    1) = (   0.0000000   0.0000000   0.0000000), wk =   0.0013717
        k(    2) = (  -0.1111111   0.1111111  -0.1111111), wk =   0.0109739
        k(    3) = (  -0.2222222   0.2222222  -0.2222222), wk =   0.0109739
        k(    4) = (  -0.3333333   0.3333333  -0.3333333), wk =   0.0109739
        k(    5) = (  -0.4444444   0.4444444  -0.4444444), wk =   0.0109739
        k(    6) = (   0.0000000   0.2222222   0.0000000), wk =   0.0082305
        k(    7) = (  -0.1111111   0.3333333  -0.1111111), wk =   0.0329218
        k(    8) = (  -0.2222222   0.4444444  -0.2222222), wk =   0.0329218
        k(    9) = (  -0.3333333   0.5555556  -0.3333333), wk =   0.0329218
        k(   10) = (   0.5555556  -0.3333333   0.5555556), wk =   0.0329218
        k(   11) = (   0.4444444  -0.2222222   0.4444444), wk =   0.0329218
        k(   12) = (   0.3333333  -0.1111111   0.3333333), wk =   0.0329218
        k(   13) = (   0.2222222  -0.0000000   0.2222222), wk =   0.0164609
        k(   14) = (   0.0000000   0.4444444   0.0000000), wk =   0.0082305
        k(   15) = (  -0.1111111   0.5555556  -0.1111111), wk =   0.0329218
        k(   16) = (  -0.2222222   0.6666667  -0.2222222), wk =   0.0329218
        k(   17) = (   0.6666667  -0.2222222   0.6666667), wk =   0.0329218
        k(   18) = (   0.5555556  -0.1111111   0.5555556), wk =   0.0329218
        k(   19) = (   0.4444444   0.0000000   0.4444444), wk =   0.0164609
        k(   20) = (   0.0000000   0.6666667   0.0000000), wk =   0.0082305
        k(   21) = (  -0.1111111   0.7777778  -0.1111111), wk =   0.0329218
        k(   22) = (   0.7777778  -0.1111111   0.7777778), wk =   0.0329218
        k(   23) = (   0.6666667  -0.0000000   0.6666667), wk =   0.0164609
        k(   24) = (   0.0000000   0.8888889   0.0000000), wk =   0.0082305
        k(   25) = (   0.8888889   0.0000000   0.8888889), wk =   0.0164609
        k(   26) = (  -0.2222222   0.4444444   0.0000000), wk =   0.0329218
        k(   27) = (  -0.3333333   0.5555556  -0.1111111), wk =   0.0658436
        k(   28) = (   0.5555556  -0.3333333   0.7777778), wk =   0.0658436
        k(   29) = (  -0.2222222   0.6666667   0.0000000), wk =   0.0329218
        k(   30) = (   0.6666667  -0.2222222   0.8888889), wk =   0.0658436
        k(   31) = (   0.5555556  -0.1111111   0.7777778), wk =   0.0658436
        k(   32) = (   0.4444444   0.0000000   0.6666667), wk =   0.0329218
        k(   33) = (   0.7777778  -0.1111111   1.0000000), wk =   0.0329218
        k(   34) = (   0.6666667  -0.0000000   0.8888889), wk =   0.0329218
        k(   35) = (   0.5555556  -0.1111111   1.0000000), wk =   0.0329218

     Dense  grid:     1459 G-vectors     FFT dimensions: (  15,  15,  15)

     Estimated max dynamical RAM per process >      13.93 MB

     Check: negative core charge=   -0.000055

     Initial potential from superposition of free atoms

     starting charge       9.9999, renormalised to      10.0000

     negative rho (up, down):  2.454E-04 0.000E+00
     Starting wfcs are   12 randomized atomic wfcs

     total cpu time spent up to now is        0.4 secs

     Self-consistent Calculation

     iteration #  1     ecut=    20.00 Ry     beta= 0.70
     Davidson diagonalization with overlap
     ethr =  1.00E-02,  avg # of iterations =  2.0

     Threshold (ethr) on eigenvalues was too large:
     Diagonalizing with lowered threshold

     Davidson diagonalization with overlap
     ethr =  4.88E-05,  avg # of iterations =  6.1

     negative rho (up, down):  3.238E-04 0.000E+00

     total cpu time spent up to now is        0.9 secs

     total energy              =     -69.43731456 Ry
     estimated scf accuracy    <       0.00165459 Ry

     iteration #  2     ecut=    20.00 Ry     beta= 0.70
     Davidson diagonalization with overlap
     ethr =  1.65E-05,  avg # of iterations =  2.2

     negative rho (up, down):  3.467E-04 0.000E+00

     total cpu time spent up to now is        1.2 secs

     total energy              =     -69.43764353 Ry
     estimated scf accuracy    <       0.00016021 Ry

     iteration #  3     ecut=    20.00 Ry     beta= 0.70
     Davidson diagonalization with overlap
     ethr =  1.60E-06,  avg # of iterations =  3.2

     negative rho (up, down):  3.610E-04 0.000E+00

     total cpu time spent up to now is        1.4 secs

     total energy              =     -69.43769990 Ry
     estimated scf accuracy    <       0.00000898 Ry

     iteration #  4     ecut=    20.00 Ry     beta= 0.70
     Davidson diagonalization with overlap
     ethr =  8.98E-08,  avg # of iterations =  5.7

     negative rho (up, down):  3.608E-04 0.000E+00

     total cpu time spent up to now is        1.7 secs

     total energy              =     -69.43770620 Ry
     estimated scf accuracy    <       0.00000042 Ry

     iteration #  5     ecut=    20.00 Ry     beta= 0.70
     Davidson diagonalization with overlap
     ethr =  4.24E-09,  avg # of iterations =  5.9

     negative rho (up, down):  3.609E-04 0.000E+00

     total cpu time spent up to now is        2.0 secs

     total energy              =     -69.43770658 Ry
     estimated scf accuracy    <       0.00000001 Ry

     iteration #  6     ecut=    20.00 Ry     beta= 0.70
     Davidson diagonalization with overlap
     ethr =  1.38E-10,  avg # of iterations =  5.5

     negative rho (up, down):  3.609E-04 0.000E+00

     total cpu time spent up to now is        2.3 secs

     End of self-consistent calculation

          k = 0.0000 0.0000 0.0000 (   169 PWs)   bands (ev):

     4.9268   4.9268  10.0734  10.0734  10.0734  10.0734  11.1063  11.1063
    12.3736  12.3736

          k =-0.1111 0.1111-0.1111 (   172 PWs)   bands (ev):

     5.3349   5.3349  10.0564  10.0564  10.1408  10.1408  11.1864  11.1864
    12.2465  12.2465

          k =-0.2222 0.2222-0.2222 (   178 PWs)   bands (ev):

     6.4048   6.4048  10.0353  10.0353  10.1943  10.1943  11.4039  11.4039
    12.1401  12.1401

          k =-0.3333 0.3333-0.3333 (   183 PWs)   bands (ev):

     7.4058   7.4058  10.0874  10.0874  10.7511  10.7511  11.2392  11.2392
    12.6761  12.6761

          k =-0.4444 0.4444-0.4444 (   180 PWs)   bands (ev):

     7.6621   7.6621   9.9614   9.9614  10.9925  10.9925  12.6828  12.6828
    13.2469  13.2469

          k = 0.0000 0.2222 0.0000 (   173 PWs)   bands (ev):

     5.4727   5.4727   9.9432   9.9432  10.2549  10.2549  11.2317  11.2317
    12.1273  12.1273

          k =-0.1111 0.3333-0.1111 (   178 PWs)   bands (ev):

     6.3437   6.3437   9.7738   9.7738  10.3583  10.3583  11.4936  11.4936
    11.9829  11.9829

          k =-0.2222 0.4444-0.2222 (   184 PWs)   bands (ev):

     7.4819   7.4819   9.9102   9.9102  10.2553  10.2553  11.4034  11.4034
    12.5830  12.5830

          k =-0.3333 0.5556-0.3333 (   186 PWs)   bands (ev):

     7.9376   7.9376   9.9769   9.9769  10.9155  10.9155  11.3889  11.3889
    13.3777  13.3777

          k = 0.5556-0.3333 0.5556 (   180 PWs)   bands (ev):

     7.9812   7.9812   9.9240   9.9240  10.9759  10.9759  11.9191  11.9191
    13.3554  13.3554

          k = 0.4444-0.2222 0.4444 (   189 PWs)   bands (ev):

     7.8943   7.8943  10.0226  10.0226  10.8206  10.8206  11.2043  11.2043
    12.7466  12.7466

          k = 0.3333-0.1111 0.3333 (   185 PWs)   bands (ev):

     7.1459   7.1459   9.8664   9.8664  10.2840  10.2840  11.4657  11.4657
    12.0369  12.0369

          k = 0.2222-0.0000 0.2222 (   174 PWs)   bands (ev):

     5.9804   5.9804   9.9230   9.9230  10.2631  10.2631  11.3684  11.3684
    12.0098  12.0098

          k = 0.0000 0.4444 0.0000 (   178 PWs)   bands (ev):

     6.9169   6.9169   9.4252   9.4252  10.5683  10.5683  11.8248  11.8248
    11.9389  11.9389

          k =-0.1111 0.5556-0.1111 (   186 PWs)   bands (ev):

     7.8466   7.8466   9.2131   9.2131  10.5176  10.5176  11.9741  11.9741
    12.5951  12.5951

          k =-0.2222 0.6667-0.2222 (   184 PWs)   bands (ev):

     8.4227   8.4227   9.4953   9.4953  10.4159  10.4159  11.8120  11.8120
    13.4600  13.4600

          k = 0.6667-0.2222 0.6667 (   182 PWs)   bands (ev):

     8.5994   8.5994   9.6787   9.6787  10.7226  10.7226  11.6552  11.6552
    13.4063  13.4063

          k = 0.5556-0.1111 0.5556 (   182 PWs)   bands (ev):

     8.7475   8.7475   9.7745   9.7745  10.4990  10.4990  11.4788  11.4788
    12.7889  12.7889

          k = 0.4444 0.0000 0.4444 (   184 PWs)   bands (ev):

     8.3045   8.3045   9.6889   9.6889  10.2117  10.2117  11.5140  11.5140
    12.1261  12.1261

          k = 0.0000 0.6667 0.0000 (   194 PWs)   bands (ev):

     8.0586   8.0586   8.7990   8.7990  11.4632  11.4632  12.6534  12.6534
    12.7318  12.7318

          k =-0.1111 0.7778-0.1111 (   187 PWs)   bands (ev):

     8.2655   8.2655   8.7126   8.7126  11.6992  11.6992  12.7310  12.7310
    13.5617  13.5617

          k = 0.7778-0.1111 0.7778 (   188 PWs)   bands (ev):

     8.5236   8.5236   9.0746   9.0746  11.2847  11.2847  12.4385  12.4385
    13.5866  13.5866

          k = 0.6667-0.0000 0.6667 (   186 PWs)   bands (ev):

     8.8826   8.8826   9.5688   9.5688  10.6332  10.6332  12.0006  12.0006
    13.1190  13.1190

          k = 0.0000 0.8889 0.0000 (   190 PWs)   bands (ev):

     8.0086   8.0086   8.4094   8.4094  13.1204  13.1204  13.2164  13.2164
    14.2122  14.2122

          k = 0.8889 0.0000 0.8889 (   192 PWs)   bands (ev):

     8.1439   8.1439   8.5169   8.5169  12.5891  12.5891  13.0571  13.0571
    13.9467  13.9467

          k =-0.2222 0.4444 0.0000 (   184 PWs)   bands (ev):

     7.3251   7.3251   9.5427   9.5427  10.3457  10.3457  11.8093  11.8093
    11.9297  11.9297

          k =-0.3333 0.5556-0.1111 (   183 PWs)   bands (ev):

     8.3118   8.3118   9.7139   9.7139  10.1166  10.1166  11.6433  11.6433
    12.6498  12.6498

          k = 0.5556-0.3333 0.7778 (   188 PWs)   bands (ev):

     8.5042   8.5042   9.7619   9.7619  10.6860  10.6860  11.5415  11.5415
    13.2665  13.2665

          k =-0.2222 0.6667 0.0000 (   186 PWs)   bands (ev):

     8.4638   8.4638   9.0331   9.0331  10.5780  10.5780  12.5501  12.5501
    12.7685  12.7685

          k = 0.6667-0.2222 0.8889 (   188 PWs)   bands (ev):

     8.7928   8.7928   9.2965   9.2965  10.4719  10.4719  12.2939  12.2939
    13.3842  13.3842

          k = 0.5556-0.1111 0.7778 (   187 PWs)   bands (ev):

     9.0612   9.0612   9.4856   9.4856  10.3762  10.3762  11.9862  11.9862
    13.3197  13.3197

          k = 0.4444 0.0000 0.6667 (   186 PWs)   bands (ev):

     9.2208   9.2208   9.5371   9.5371   9.8918   9.8918  11.9753  11.9753
    12.8133  12.8133

          k = 0.7778-0.1111 1.0000 (   188 PWs)   bands (ev):

     8.3780   8.3780   8.7026   8.7026  11.7345  11.7345  12.9190  12.9190
    13.7586  13.7586

          k = 0.6667-0.0000 0.8889 (   193 PWs)   bands (ev):

     8.7042   8.7042   9.1183   9.1183  11.0438  11.0438  12.4304  12.4304
    13.7030  13.7030

          k = 0.5556-0.1111 1.0000 (   187 PWs)   bands (ev):

     9.0623   9.0623   9.5334   9.5334  10.1912  10.1912  12.1760  12.1760
    13.6641  13.6641

     highest occupied level (ev):    14.2122

!    total energy              =     -69.43770659 Ry
     estimated scf accuracy    <          1.3E-09 Ry

     The total energy is the sum of the following terms:
     one-electron contribution =      12.22280723 Ry
     hartree contribution      =       4.89110810 Ry
     xc contribution           =     -28.36809304 Ry
     ewald contribution        =     -58.18352889 Ry

     convergence has been achieved in   6 iterations

     negative rho (up, down):  3.609E-04 0.000E+00

     Forces acting on atoms (cartesian axes, Ry/au):

     atom    1 type  1   force =     0.00000000    0.00000000    0.00000000

     Total force =     0.000000     Total SCF correction =     0.000000


     Computing stress (Cartesian axis) and pressure


     negative rho (up, down):  3.609E-04 0.000E+00
          total   stress  (Ry/bohr**3)                   (kbar)     P=     -282.34
  -0.00191929  -0.00000000   0.00000000         -282.34       -0.00        0.00
   0.00000000  -0.00191929  -0.00000000            0.00     -282.34       -0.00
  -0.00000000  -0.00000000  -0.00191929           -0.00       -0.00     -282.34


     Writing all to output data dir ./platinum.save/ :
     XML data file, charge density, pseudopotentials, collected wavefunctions

     init_run     :      0.26s CPU      0.28s WALL (       1 calls)
     electrons    :      1.74s CPU      1.92s WALL (       1 calls)
     forces       :      0.04s CPU      0.04s WALL (       1 calls)
     stress       :      0.18s CPU      0.19s WALL (       1 calls)

     Called by init_run:
     wfcinit      :      0.07s CPU      0.08s WALL (       1 calls)
     potinit      :      0.01s CPU      0.01s WALL (       1 calls)
     hinit0       :      0.16s CPU      0.18s WALL (       1 calls)

     Called by electrons:
     c_bands      :      1.38s CPU      1.56s WALL (       7 calls)
     sum_band     :      0.28s CPU      0.29s WALL (       7 calls)
     v_of_rho     :      0.00s CPU      0.00s WALL (       7 calls)
     newd         :      0.09s CPU      0.09s WALL (       7 calls)
     mix_rho      :      0.00s CPU      0.00s WALL (       7 calls)

     Called by c_bands:
     init_us_2    :      0.03s CPU      0.03s WALL (     595 calls)
     cegterg      :      1.30s CPU      1.46s WALL (     245 calls)

     Called by *egterg:
     cdiaghg      :      0.09s CPU      0.10s WALL (    1281 calls)
     h_psi        :      0.74s CPU      0.84s WALL (    1351 calls)
     s_psi        :      0.13s CPU      0.14s WALL (    1351 calls)
     g_psi        :      0.01s CPU      0.01s WALL (    1071 calls)

     Called by h_psi:
     h_psi:calbec :      0.10s CPU      0.12s WALL (    1351 calls)
     vloc_psi     :      0.49s CPU      0.56s WALL (    1351 calls)
     add_vuspsi   :      0.13s CPU      0.14s WALL (    1351 calls)

     General routines
     calbec       :      0.15s CPU      0.16s WALL (    1771 calls)
     fft          :      0.02s CPU      0.03s WALL (      79 calls)
     ffts         :      0.00s CPU      0.00s WALL (      28 calls)
     fftw         :      0.37s CPU      0.42s WALL (   41456 calls)

     Parallel routines

     PWSCF        :      2.32s CPU      2.55s WALL


   This run was terminated on:  22: 2:50   4Nov2024            

=------------------------------------------------------------------------------=
   JOB DONE.
=------------------------------------------------------------------------------=
