
     Program PWSCF v.7.3.1 starts on  4Nov2024 at 22: 1:25 

     This program is part of the open-source Quantum ESPRESSO suite
     for quantum simulation of materials; please cite
         "P. Giannozzi et al., J. Phys.:Condens. Matter 21 395502 (2009);
         "P. Giannozzi et al., J. Phys.:Condens. Matter 29 465901 (2017);
         "P. Giannozzi et al., J. Chem. Phys. 152 154105 (2020);
          URL http://www.quantum-espresso.org", 
     in publications or presentations arising from this work. More details at
     http://www.quantum-espresso.org/quote

     Parallel version (MPI), running on     1 processors

     MPI processes distributed on     1 nodes
     11843 MiB available memory on the printing compute node when the environment starts

     Waiting for input...
     Reading input from standard input

     Current dimensions of program PWSCF are:
     Max number of different atomic species (ntypx) = 10
     Max number of k-points (npk) =  40000
     Max angular momentum in pseudopotentials (lmaxx) =  4

     Subspace diagonalization in iterative solution of the eigenvalue problem:
     a serial algorithm will be used


     G-vector sticks info
     --------------------
     sticks:   dense  smooth     PW     G-vecs:    dense   smooth      PW
     Sum         151     151     61                 1243     1243     307

     Using Slab Decomposition



     bravais-lattice index     =            2
     lattice parameter (alat)  =       7.5200  a.u.
     unit-cell volume          =     106.3148 (a.u.)^3
     number of atoms/cell      =            1
     number of atomic types    =            1
     number of electrons       =        10.00
     number of Kohn-Sham states=           10
     kinetic-energy cutoff     =      20.0000  Ry
     charge density cutoff     =      80.0000  Ry
     scf convergence threshold =      1.0E-08
     mixing beta               =       0.7000
     number of iterations used =            8  plain     mixing
     Exchange-correlation=  SLA  PZ   NOGX NOGC
                           (   1   1   0   0   0   0   0)
     Non magnetic calculation with spin-orbit


     celldm(1)=   7.520000  celldm(2)=   0.000000  celldm(3)=   0.000000
     celldm(4)=   0.000000  celldm(5)=   0.000000  celldm(6)=   0.000000

     crystal axes: (cart. coord. in units of alat)
               a(1) = (  -0.500000   0.000000   0.500000 )  
               a(2) = (   0.000000   0.500000   0.500000 )  
               a(3) = (  -0.500000   0.500000   0.000000 )  

     reciprocal axes: (cart. coord. in units 2 pi/alat)
               b(1) = ( -1.000000 -1.000000  1.000000 )  
               b(2) = (  1.000000  1.000000  1.000000 )  
               b(3) = ( -1.000000  1.000000 -1.000000 )  


     PseudoPot. # 1 for Pt read from file:
     /home/dashlander/Desktop/Sem7/CPD/Assignment_3/pseudo/Pt.rel-pz-n-rrkjus.UPF
     MD5 check sum: 4baafe8ec1942611396c7a5466f52249
     Pseudo is Ultrasoft + core correction, Zval = 10.0
     Generated by new atomic code, or converted to UPF format
     Using radial grid of 1277 points,  6 beta functions with: 
                l(1) =   2
                l(2) =   2
                l(3) =   2
                l(4) =   2
                l(5) =   1
                l(6) =   1
     Q(r) pseudized with 0 coefficients 


     atomic species   valence    mass     pseudopotential
     Pt               10.00   195.08400     Pt( 1.00)

     48 Sym. Ops., with inversion, found



   Cartesian axes

     site n.     atom                  positions (alat units)
         1        Pt     tau(   1) = (   0.0000000   0.0000000   0.0000000  )

     number of k points=    35
                       cart. coord. in units 2pi/alat
        k(    1) = (   0.0000000   0.0000000   0.0000000), wk =   0.0013717
        k(    2) = (  -0.1111111   0.1111111  -0.1111111), wk =   0.0109739
        k(    3) = (  -0.2222222   0.2222222  -0.2222222), wk =   0.0109739
        k(    4) = (  -0.3333333   0.3333333  -0.3333333), wk =   0.0109739
        k(    5) = (  -0.4444444   0.4444444  -0.4444444), wk =   0.0109739
        k(    6) = (   0.0000000   0.2222222   0.0000000), wk =   0.0082305
        k(    7) = (  -0.1111111   0.3333333  -0.1111111), wk =   0.0329218
        k(    8) = (  -0.2222222   0.4444444  -0.2222222), wk =   0.0329218
        k(    9) = (  -0.3333333   0.5555556  -0.3333333), wk =   0.0329218
        k(   10) = (   0.5555556  -0.3333333   0.5555556), wk =   0.0329218
        k(   11) = (   0.4444444  -0.2222222   0.4444444), wk =   0.0329218
        k(   12) = (   0.3333333  -0.1111111   0.3333333), wk =   0.0329218
        k(   13) = (   0.2222222  -0.0000000   0.2222222), wk =   0.0164609
        k(   14) = (   0.0000000   0.4444444   0.0000000), wk =   0.0082305
        k(   15) = (  -0.1111111   0.5555556  -0.1111111), wk =   0.0329218
        k(   16) = (  -0.2222222   0.6666667  -0.2222222), wk =   0.0329218
        k(   17) = (   0.6666667  -0.2222222   0.6666667), wk =   0.0329218
        k(   18) = (   0.5555556  -0.1111111   0.5555556), wk =   0.0329218
        k(   19) = (   0.4444444   0.0000000   0.4444444), wk =   0.0164609
        k(   20) = (   0.0000000   0.6666667   0.0000000), wk =   0.0082305
        k(   21) = (  -0.1111111   0.7777778  -0.1111111), wk =   0.0329218
        k(   22) = (   0.7777778  -0.1111111   0.7777778), wk =   0.0329218
        k(   23) = (   0.6666667  -0.0000000   0.6666667), wk =   0.0164609
        k(   24) = (   0.0000000   0.8888889   0.0000000), wk =   0.0082305
        k(   25) = (   0.8888889   0.0000000   0.8888889), wk =   0.0164609
        k(   26) = (  -0.2222222   0.4444444   0.0000000), wk =   0.0329218
        k(   27) = (  -0.3333333   0.5555556  -0.1111111), wk =   0.0658436
        k(   28) = (   0.5555556  -0.3333333   0.7777778), wk =   0.0658436
        k(   29) = (  -0.2222222   0.6666667   0.0000000), wk =   0.0329218
        k(   30) = (   0.6666667  -0.2222222   0.8888889), wk =   0.0658436
        k(   31) = (   0.5555556  -0.1111111   0.7777778), wk =   0.0658436
        k(   32) = (   0.4444444   0.0000000   0.6666667), wk =   0.0329218
        k(   33) = (   0.7777778  -0.1111111   1.0000000), wk =   0.0329218
        k(   34) = (   0.6666667  -0.0000000   0.8888889), wk =   0.0329218
        k(   35) = (   0.5555556  -0.1111111   1.0000000), wk =   0.0329218

     Dense  grid:     1243 G-vectors     FFT dimensions: (  15,  15,  15)

     Estimated max dynamical RAM per process >      12.11 MB

     Check: negative core charge=   -0.000066

     Initial potential from superposition of free atoms

     starting charge       9.9999, renormalised to      10.0000

     negative rho (up, down):  2.189E-04 0.000E+00
     Starting wfcs are   12 randomized atomic wfcs

     total cpu time spent up to now is        0.4 secs

     Self-consistent Calculation

     iteration #  1     ecut=    20.00 Ry     beta= 0.70
     Davidson diagonalization with overlap
     ethr =  1.00E-02,  avg # of iterations =  2.0

     Threshold (ethr) on eigenvalues was too large:
     Diagonalizing with lowered threshold

     Davidson diagonalization with overlap
     ethr =  2.73E-05,  avg # of iterations =  7.1

     negative rho (up, down):  3.025E-04 0.000E+00

     total cpu time spent up to now is        0.9 secs

     total energy              =     -69.45653413 Ry
     estimated scf accuracy    <       0.00380429 Ry

     iteration #  2     ecut=    20.00 Ry     beta= 0.70
     Davidson diagonalization with overlap
     ethr =  3.80E-05,  avg # of iterations =  2.1

     negative rho (up, down):  3.267E-04 0.000E+00

     total cpu time spent up to now is        1.2 secs

     total energy              =     -69.45752999 Ry
     estimated scf accuracy    <       0.00046464 Ry

     iteration #  3     ecut=    20.00 Ry     beta= 0.70
     Davidson diagonalization with overlap
     ethr =  4.65E-06,  avg # of iterations =  2.0

     negative rho (up, down):  3.447E-04 0.000E+00

     total cpu time spent up to now is        1.4 secs

     total energy              =     -69.45760455 Ry
     estimated scf accuracy    <       0.00001450 Ry

     iteration #  4     ecut=    20.00 Ry     beta= 0.70
     Davidson diagonalization with overlap
     c_bands:  1 eigenvalues not converged
     ethr =  1.45E-07,  avg # of iterations =  6.9

     negative rho (up, down):  3.446E-04 0.000E+00

     total cpu time spent up to now is        1.7 secs

     total energy              =     -69.45763733 Ry
     estimated scf accuracy    <       0.00000081 Ry

     iteration #  5     ecut=    20.00 Ry     beta= 0.70
     Davidson diagonalization with overlap
     ethr =  8.14E-09,  avg # of iterations =  4.6

     negative rho (up, down):  3.451E-04 0.000E+00

     total cpu time spent up to now is        1.9 secs

     total energy              =     -69.45763814 Ry
     estimated scf accuracy    <       0.00000039 Ry

     iteration #  6     ecut=    20.00 Ry     beta= 0.70
     Davidson diagonalization with overlap
     ethr =  3.86E-09,  avg # of iterations =  2.7

     negative rho (up, down):  3.452E-04 0.000E+00

     total cpu time spent up to now is        2.1 secs

     total energy              =     -69.45763782 Ry
     estimated scf accuracy    <       0.00000088 Ry

     iteration #  7     ecut=    20.00 Ry     beta= 0.70
     Davidson diagonalization with overlap
     ethr =  3.86E-09,  avg # of iterations =  2.0

     negative rho (up, down):  3.453E-04 0.000E+00

     total cpu time spent up to now is        2.4 secs

     total energy              =     -69.45763783 Ry
     estimated scf accuracy    <       0.00000011 Ry

     iteration #  8     ecut=    20.00 Ry     beta= 0.70
     Davidson diagonalization with overlap
     c_bands:  1 eigenvalues not converged
     ethr =  1.12E-09,  avg # of iterations =  3.7

     negative rho (up, down):  3.452E-04 0.000E+00

     total cpu time spent up to now is        2.6 secs

     total energy              =     -69.45763853 Ry
     estimated scf accuracy    <       0.00000002 Ry

     iteration #  9     ecut=    20.00 Ry     beta= 0.70
     Davidson diagonalization with overlap
     ethr =  2.07E-10,  avg # of iterations =  3.1

     negative rho (up, down):  3.453E-04 0.000E+00

     total cpu time spent up to now is        2.8 secs

     total energy              =     -69.45764963 Ry
     estimated scf accuracy    <       0.00000766 Ry

     iteration # 10     ecut=    20.00 Ry     beta= 0.70
     Davidson diagonalization with overlap
     ethr =  2.07E-10,  avg # of iterations =  1.0

     negative rho (up, down):  3.452E-04 0.000E+00

     total cpu time spent up to now is        2.9 secs

     total energy              =     -69.45765024 Ry
     estimated scf accuracy    <       0.00000753 Ry

     iteration # 11     ecut=    20.00 Ry     beta= 0.70
     Davidson diagonalization with overlap
     ethr =  2.07E-10,  avg # of iterations =  2.9

     negative rho (up, down):  3.453E-04 0.000E+00

     total cpu time spent up to now is        3.2 secs

     total energy              =     -69.45765006 Ry
     estimated scf accuracy    <       0.00000913 Ry

     iteration # 12     ecut=    20.00 Ry     beta= 0.70
     Davidson diagonalization with overlap
     ethr =  2.07E-10,  avg # of iterations =  1.0

     negative rho (up, down):  3.452E-04 0.000E+00

     total cpu time spent up to now is        3.3 secs

     total energy              =     -69.45765110 Ry
     estimated scf accuracy    <       0.00000873 Ry

     iteration # 13     ecut=    20.00 Ry     beta= 0.70
     Davidson diagonalization with overlap
     ethr =  2.07E-10,  avg # of iterations =  3.8

     negative rho (up, down):  3.453E-04 0.000E+00

     total cpu time spent up to now is        3.6 secs

     total energy              =     -69.45764646 Ry
     estimated scf accuracy    <       0.00001164 Ry

     iteration # 14     ecut=    20.00 Ry     beta= 0.70
     Davidson diagonalization with overlap
     ethr =  2.07E-10,  avg # of iterations =  9.0

     negative rho (up, down):  3.452E-04 0.000E+00

     total cpu time spent up to now is        4.1 secs

     total energy              =     -69.45765105 Ry
     estimated scf accuracy    <       0.00000136 Ry

     iteration # 15     ecut=    20.00 Ry     beta= 0.70
     Davidson diagonalization with overlap
     ethr =  2.07E-10,  avg # of iterations =  9.8

     negative rho (up, down):  3.452E-04 0.000E+00

     total cpu time spent up to now is        4.6 secs

     total energy              =     -69.45765284 Ry
     estimated scf accuracy    <       0.00001561 Ry

     iteration # 16     ecut=    20.00 Ry     beta= 0.70
     Davidson diagonalization with overlap
     ethr =  2.07E-10,  avg # of iterations =  2.0

     negative rho (up, down):  3.454E-04 0.000E+00

     total cpu time spent up to now is        4.8 secs

     total energy              =     -69.45764483 Ry
     estimated scf accuracy    <       0.00001638 Ry

     iteration # 17     ecut=    20.00 Ry     beta= 0.70
     Davidson diagonalization with overlap
     c_bands:  2 eigenvalues not converged
     ethr =  2.07E-10,  avg # of iterations = 10.7

     negative rho (up, down):  3.454E-04 0.000E+00

     total cpu time spent up to now is        5.4 secs

     total energy              =     -69.45764687 Ry
     estimated scf accuracy    <       0.00000040 Ry

     iteration # 18     ecut=    20.00 Ry     beta= 0.70
     Davidson diagonalization with overlap
     ethr =  2.07E-10,  avg # of iterations =  4.9

     negative rho (up, down):  3.454E-04 0.000E+00

     total cpu time spent up to now is        5.7 secs

     End of self-consistent calculation

          k = 0.0000 0.0000 0.0000 (   169 PWs)   bands (ev):

     6.7033   6.7033  12.5968  12.5968  12.5968  12.5968  13.5977  13.5977
    15.2461  15.2461

          k =-0.1111 0.1111-0.1111 (   168 PWs)   bands (ev):

     7.1678   7.1678  12.5544  12.5544  12.6926  12.6926  13.6999  13.6999
    15.0908  15.0908

          k =-0.2222 0.2222-0.2222 (   162 PWs)   bands (ev):

     8.3611   8.3611  12.4752  12.4752  12.7695  12.7695  13.9640  13.9640
    14.9942  14.9942

          k =-0.3333 0.3333-0.3333 (   153 PWs)   bands (ev):

     9.3983   9.3983  12.6201  12.6201  13.3031  13.3031  13.7504  13.7504
    15.6868  15.6868

          k =-0.4444 0.4444-0.4444 (   162 PWs)   bands (ev):

     9.6165   9.6165  12.4494  12.4494  13.4665  13.4665  15.4372  15.4372
    16.3425  16.3425

          k = 0.0000 0.2222 0.0000 (   165 PWs)   bands (ev):

     7.3249   7.3249  12.4037  12.4037  12.8389  12.8389  13.7689  13.7689
    14.9008  14.9008

          k =-0.1111 0.3333-0.1111 (   160 PWs)   bands (ev):

     8.3033   8.3033  12.1522  12.1522  12.9703  12.9703  14.0997  14.0997
    14.7357  14.7357

          k =-0.2222 0.4444-0.2222 (   155 PWs)   bands (ev):

     9.5256   9.5256  12.3160  12.3160  12.7742  12.7742  13.9720  13.9720
    15.5599  15.5599

          k =-0.3333 0.5556-0.3333 (   160 PWs)   bands (ev):

     9.9528   9.9528  12.4475  12.4475  13.4317  13.4317  13.9366  13.9366
    16.5848  16.5848

          k = 0.5556-0.3333 0.5556 (   162 PWs)   bands (ev):

     9.9852   9.9852  12.3773  12.3773  13.4665  13.4665  14.5715  14.5715
    16.5330  16.5330

          k = 0.4444-0.2222 0.4444 (   155 PWs)   bands (ev):

     9.9306   9.9306  12.5221  12.5221  13.3397  13.3397  13.7167  13.7167
    15.7415  15.7415

          k = 0.3333-0.1111 0.3333 (   157 PWs)   bands (ev):

     9.1826   9.1826  12.2575  12.2575  12.8506  12.8506  14.0465  14.0465
    14.8255  14.8255

          k = 0.2222-0.0000 0.2222 (   160 PWs)   bands (ev):

     7.8977   7.8977  12.3549  12.3549  12.8528  12.8528  13.9358  13.9358
    14.7737  14.7737

          k = 0.0000 0.4444 0.0000 (   165 PWs)   bands (ev):

     8.9328   8.9328  11.6930  11.6930  13.2323  13.2323  14.5708  14.5708
    14.6305  14.6305

          k =-0.1111 0.5556-0.1111 (   156 PWs)   bands (ev):

     9.9248   9.9248  11.4151  11.4151  13.0914  13.0914  14.7365  14.7365
    15.5775  15.5775

          k =-0.2222 0.6667-0.2222 (   159 PWs)   bands (ev):

    10.5021  10.5021  11.7540  11.7540  12.9016  12.9016  14.5276  14.5276
    16.6985  16.6985

          k = 0.6667-0.2222 0.6667 (   162 PWs)   bands (ev):

    10.7017  10.7017  11.9879  11.9879  13.2162  13.2162  14.3118  14.3118
    16.6033  16.6033

          k = 0.5556-0.1111 0.5556 (   161 PWs)   bands (ev):

    10.9108  10.9108  12.1466  12.1466  12.8955  12.8955  14.1316  14.1316
    15.7795  15.7795

          k = 0.4444 0.0000 0.4444 (   158 PWs)   bands (ev):

    10.4737  10.4737  12.0259  12.0259  12.6633  12.6633  14.1735  14.1735
    14.9050  14.9050

          k = 0.0000 0.6667 0.0000 (   154 PWs)   bands (ev):

    10.0740  10.0740  10.8919  10.8919  14.2351  14.2351  15.6826  15.6826
    15.7014  15.7014

          k =-0.1111 0.7778-0.1111 (   162 PWs)   bands (ev):

    10.2551  10.2551  10.7833  10.7833  14.4524  14.4524  15.7425  15.7425
    16.7855  16.7855

          k = 0.7778-0.1111 0.7778 (   160 PWs)   bands (ev):

    10.5526  10.5526  11.2256  11.2256  13.9041  13.9041  15.3703  15.3703
    16.8084  16.8084

          k = 0.6667-0.0000 0.6667 (   164 PWs)   bands (ev):

    11.0142  11.0142  11.8559  11.8559  13.0595  13.0595  14.8249  14.8249
    16.1908  16.1908

          k = 0.0000 0.8889 0.0000 (   162 PWs)   bands (ev):

     9.9192   9.9192  10.4062  10.4062  16.3280  16.3280  16.4452  16.4452
    17.5120  17.5120

          k = 0.8889 0.0000 0.8889 (   162 PWs)   bands (ev):

    10.0741  10.0741  10.5408  10.5408  15.5383  15.5383  16.2181  16.2181
    17.1998  17.1998

          k =-0.2222 0.4444 0.0000 (   160 PWs)   bands (ev):

     9.3912   9.3912  11.8384  11.8384  12.9075  12.9075  14.4989  14.4989
    14.6990  14.6990

          k =-0.3333 0.5556-0.1111 (   157 PWs)   bands (ev):

    10.4396  10.4396  12.0589  12.0589  12.5268  12.5268  14.3153  14.3153
    15.6147  15.6147

          k = 0.5556-0.3333 0.7778 (   162 PWs)   bands (ev):

    10.6070  10.6070  12.1111  12.1111  13.1721  13.1721  14.1483  14.1483
    16.4218  16.4218

          k =-0.2222 0.6667 0.0000 (   159 PWs)   bands (ev):

    10.5557  10.5557  11.1849  11.1849  13.1042  13.1042  15.5019  15.5019
    15.7636  15.7636

          k = 0.6667-0.2222 0.8889 (   161 PWs)   bands (ev):

    10.9040  10.9040  11.5028  11.5028  12.9245  12.9245  15.1501  15.1501
    16.5663  16.5663

          k = 0.5556-0.1111 0.7778 (   164 PWs)   bands (ev):

    11.2475  11.2475  11.7356  11.7356  12.7721  12.7721  14.7519  14.7519
    16.4798  16.4798

          k = 0.4444 0.0000 0.6667 (   161 PWs)   bands (ev):

    11.5029  11.5029  11.8483  11.8483  12.1281  12.1281  14.7539  14.7539
    15.8162  15.8162

          k = 0.7778-0.1111 1.0000 (   163 PWs)   bands (ev):

    10.3625  10.3625  10.7736  10.7736  14.4690  14.4690  15.9976  15.9976
    17.0055  17.0055

          k = 0.6667-0.0000 0.8889 (   162 PWs)   bands (ev):

    10.7596  10.7596  11.2879  11.2879  13.6025  13.6025  15.3412  15.3412
    16.9648  16.9648

          k = 0.5556-0.1111 1.0000 (   161 PWs)   bands (ev):

    11.1983  11.1983  11.8335  11.8335  12.5321  12.5321  14.9872  14.9872
    16.9294  16.9294

     highest occupied level (ev):    17.5120

!    total energy              =     -69.45764695 Ry
     estimated scf accuracy    <          1.1E-10 Ry

     The total energy is the sum of the following terms:
     one-electron contribution =      15.99069131 Ry
     hartree contribution      =       4.02668743 Ry
     xc contribution           =     -28.50611508 Ry
     ewald contribution        =     -60.96891060 Ry

     convergence has been achieved in  18 iterations

     negative rho (up, down):  3.454E-04 0.000E+00

     Forces acting on atoms (cartesian axes, Ry/au):

     atom    1 type  1   force =     0.00000000    0.00000000    0.00000000

     Total force =     0.000000     Total SCF correction =     0.000000


     Computing stress (Cartesian axis) and pressure


     negative rho (up, down):  3.454E-04 0.000E+00
          total   stress  (Ry/bohr**3)                   (kbar)     P=      -47.36
  -0.00032195  -0.00000000  -0.00000000          -47.36       -0.00       -0.00
  -0.00000000  -0.00032195  -0.00000000           -0.00      -47.36       -0.00
  -0.00000000   0.00000000  -0.00032195           -0.00        0.00      -47.36


     Writing all to output data dir ./platinum.save/ :
     XML data file, charge density, pseudopotentials, collected wavefunctions

     init_run     :      0.24s CPU      0.28s WALL (       1 calls)
     electrons    :      4.75s CPU      5.28s WALL (       1 calls)
     forces       :      0.04s CPU      0.04s WALL (       1 calls)
     stress       :      0.16s CPU      0.16s WALL (       1 calls)

     Called by init_run:
     wfcinit      :      0.05s CPU      0.08s WALL (       1 calls)
     potinit      :      0.01s CPU      0.01s WALL (       1 calls)
     hinit0       :      0.17s CPU      0.18s WALL (       1 calls)

     Called by electrons:
     c_bands      :      3.84s CPU      4.32s WALL (      19 calls)
     sum_band     :      0.69s CPU      0.74s WALL (      19 calls)
     v_of_rho     :      0.00s CPU      0.00s WALL (      19 calls)
     newd         :      0.21s CPU      0.22s WALL (      19 calls)
     mix_rho      :      0.01s CPU      0.01s WALL (      19 calls)

     Called by c_bands:
     init_us_2    :      0.05s CPU      0.06s WALL (    1435 calls)
     cegterg      :      3.63s CPU      4.09s WALL (     665 calls)

     Called by *egterg:
     cdiaghg      :      0.23s CPU      0.26s WALL (    3480 calls)
     h_psi        :      2.03s CPU      2.31s WALL (    3550 calls)
     s_psi        :      0.33s CPU      0.37s WALL (    3550 calls)
     g_psi        :      0.04s CPU      0.04s WALL (    2850 calls)

     Called by h_psi:
     h_psi:calbec :      0.26s CPU      0.30s WALL (    3550 calls)
     vloc_psi     :      1.40s CPU      1.60s WALL (    3550 calls)
     add_vuspsi   :      0.33s CPU      0.37s WALL (    3550 calls)

     General routines
     calbec       :      0.33s CPU      0.37s WALL (    4390 calls)
     fft          :      0.02s CPU      0.03s WALL (     199 calls)
     ffts         :      0.00s CPU      0.00s WALL (      76 calls)
     fftw         :      1.03s CPU      1.18s WALL (  119856 calls)

     Parallel routines

     PWSCF        :      5.28s CPU      5.87s WALL


   This run was terminated on:  22: 1:31   4Nov2024            

=------------------------------------------------------------------------------=
   JOB DONE.
=------------------------------------------------------------------------------=
