LAMMPS (29 Aug 2024)
units                  real
atom_style	       full
bond_style	       harmonic
angle_style	       harmonic
boundary	       p p p

neighbor 2.0 bin
neigh_modify every 1 delay 0 check yes

# ============= read data and parameters files

pair_style            lj/cut 10.0
pair_modify           shift yes mix arithmetic

read_data             equilb_200ps.data
Reading data file ...
  orthogonal box = (-0.1495 -0.193001 -38.75) to (32.8505 32.806999 41.25)
  1 by 2 by 4 MPI processor grid
  reading atoms ...
  4369 atoms
  reading velocities ...
  4369 velocities
  scanning bonds ...
  4 = max bonds/atom
  scanning angles ...
  6 = max angles/atom
  scanning dihedrals ...
  8 = max dihedrals/atom
  scanning impropers ...
  2 = max impropers/atom
  orthogonal box = (-0.1495 -0.193001 -38.75) to (32.8505 32.806999 41.25)
  1 by 2 by 4 MPI processor grid
  reading bonds ...
  3937 bonds
  reading angles ...
  4687 angles
  reading dihedrals ...
  6951 dihedrals
  reading impropers ...
  1152 impropers
Finding 1-2 1-3 1-4 neighbors ...
  special bond factors lj:    0        0        0       
  special bond factors coul:  0        0        0       
     4 = max # of 1-2 neighbors
     6 = max # of 1-3 neighbors
    18 = max # of 1-4 neighbors
    18 = max # of special neighbors
  special bonds CPU = 0.001 seconds
  read_data CPU = 0.087 seconds

pair_coeff  1  1      0.0859  3.3997
pair_coeff  2  2      0.0659  3.5000
pair_coeff  3  3      0.0859  3.3997
pair_coeff  4  4      0.0859  3.3997
pair_coeff  5  5      0.0299  2.5000
pair_coeff  6  6      0.0000  1.0000
pair_coeff  7  7      0.1521  3.1507

bond_coeff     1      938.0    1.42
bond_coeff     2      661.2    1.10
bond_coeff     3      938.0    1.42
bond_coeff     4      938.0    1.42
bond_coeff     5      450.0    0.9572

angle_coeff    1      126      120.0
angle_coeff    2      126      120.0
angle_coeff    3      126      120.0
angle_coeff    4      78.8     109.5
angle_coeff    5      55.0     104.52


group  water     type 6  7
2985 atoms in group water
group  memb      type 1
438 atoms in group memb
group  CG1       type 3
448 atoms in group CG1
group  CG2       type 4
448 atoms in group CG2
group  CG3       type 3 4
896 atoms in group CG3


compute 9 all pe/atom

dump dump_1 all custom 1000 dump.lammpstrj id type x y z

timestep 1.0
thermo_style custom step time cpu temp pe ke etotal press vol
thermo 100

fix                    myshk1  water shake 1.0e-5 200 0 b 5 a 5
Finding SHAKE clusters ...
       0 = # of size 2 clusters
       0 = # of size 3 clusters
       0 = # of size 4 clusters
     995 = # of frozen angles
  find clusters CPU = 0.001 seconds

fix                    freeze memb setforce 0.0 0.0 0.0

fix                    pistonkeep CG3  setforce  0.0   0.0    NULL
fix                    myforce1   CG1  aveforce  NULL  NULL  -1.439     #P=250 bars
fix                    freeze1    CG2  setforce 0.0 0.0 0.0

fix                    mynvt  all nvt temp 300 300 1000.0
run                    1000000

CITE-CITE-CITE-CITE-CITE-CITE-CITE-CITE-CITE-CITE-CITE-CITE-CITE

Your simulation uses code contributions which should be cited:

- Type Label Framework: https://doi.org/10.1021/acs.jpcb.3c08419

@Article{Gissinger24,
 author = {Jacob R. Gissinger, Ilia Nikiforov, Yaser Afshar, Brendon Waters, Moon-ki Choi, Daniel S. Karls, Alexander Stukowski, Wonpil Im, Hendrik Heinz, Axel Kohlmeyer, and Ellad B. Tadmor},
 title = {Type Label Framework for Bonded Force Fields in LAMMPS},
 journal = {J. Phys. Chem. B},
 year =    2024,
 volume =  128,
 number =  13,
 pages =   {3282–-3297}
}

CITE-CITE-CITE-CITE-CITE-CITE-CITE-CITE-CITE-CITE-CITE-CITE-CITE

Generated 21 of 21 mixed pair_coeff terms from arithmetic mixing rule
WARNING: Dihedrals are defined but no dihedral style is set (../force.cpp:207)
WARNING: Likewise 1-4 special neighbor interactions != 1.0 (../force.cpp:209)
WARNING: Impropers are defined but no improper style is set (../force.cpp:212)
Neighbor list info ...
  update: every = 1 steps, delay = 0 steps, check = yes
  max neighbors/atom: 2000, page size: 100000
  master list distance cutoff = 12
  ghost atom cutoff = 12
  binsize = 6, bins = 6 6 14
  1 neighbor lists, perpetual/occasional/extra = 1 0 0
  (1) pair lj/cut, perpetual
      attributes: half, newton on
      pair build: half/bin/newton
      stencil: half/bin/3d
      bin: standard
Per MPI rank memory allocation (min/avg/max) = 13.72 | 14.32 | 15.25 Mbytes
   Step          Time           CPU            Temp          PotEng         KinEng         TotEng         Press          Volume    
         0   0              0              291.08563      8537.5057      2926.6542      11464.16       61550.01       87120        
       100   100            0.60240131     300.9812       8541.2647      3026.1469      11567.412      61625.903      87120        
       200   200            1.2035683      321.20894      8601.6805      3229.5221      11831.203      62025.718      87120        
       300   300            1.8296167      353.12357      8661.7097      3550.4005      12212.11       62605.01       87120        
       400   400            2.4522365      379.83455      8794.148       3818.9599      12613.108      63330.86       87120        
       500   500            3.1164764      411.13773      8907.3522      4133.6907      13041.043      64133.07       87120        
       600   600            3.8318603      439.73538      9063.7614      4421.2193      13484.981      65085.589      87120        
       700   700            4.589755       466.61072      9268.3714      4691.4312      13959.803      66193.327      87120        
       800   800            5.4070389      501.48347      9400.6395      5042.0513      14442.691      67022.08       87120        
       900   900            6.2718597      522.80997      9609.4643      5256.4738      14865.938      68181.799      87120        
      1000   1000           7.1991236      540.59605      9813.6245      5435.2999      15248.924      69295.852      87120        
      1100   1100           8.1315383      541.72745      10182.701      5446.6753      15629.376      70893.585      87120        
      1200   1200           9.1331178      537.76527      10599.311      5406.8385      16006.15       72677.915      87120        
      1300   1300           10.210295      520.97688      11147.33       5238.0434      16385.373      74887.135      87120        
      1400   1400           11.338306      505.06434      11645.924      5078.0544      16723.978      76795.935      87120        
      1500   1500           12.485649      501.81335      11809.733      5045.3681      16855.101      77547.139      87120        
      1600   1600           13.627343      487.24273      11841.37       4898.8711      16740.241      77531.401      87120        
      1700   1700           14.800972      491.19541      11539.261      4938.6124      16477.873      76435.502      87120        
      1800   1800           15.974029      490.17831      11181.691      4928.3862      16110.077      74960.121      87120        
      1900   1900           17.160107      496.27331      10677.174      4989.667       15666.841      72880.845      87120        
      2000   2000           18.282309      486.06034      10295.757      4886.9831      15182.74       71253.741      87120        
      2100   2100           19.315375      468.23945      9996.1737      4707.8069      14703.981      69972.731      87120        
      2200   2200           20.301279      441.02142      9771.6749      4434.1495      14205.824      68848.505      87120        
      2300   2300           21.254798      419.51927      9481.6455      4217.961       13699.607      67467.57       87120        
      2400   2400           22.182522      392.20745      9287.6425      3943.3605      13231.003      66318.115      87120        
      2500   2500           23.081938      367.48159      9146.6473      3694.76        12841.407      65534.145      87120        
      2600   2600           23.957984      345.93582      9046.7729      3478.1329      12524.906      64975.987      87120        
      2700   2700           24.801198      327.08349      8991.4709      3288.5865      12280.057      64635.005      87120        
      2800   2800           25.624252      317.75225      8902.3091      3194.7676      12097.077      64272.57       87120        
      2900   2900           26.456238      307.93061      8908.2884      3096.0182      12004.307      64215.634      87120        
      3000   3000           27.268809      302.9301       8936.6131      3045.7417      11982.355      64280.512      87120        
      3100   3100           28.075122      303.06227      8970.9055      3047.0706      12017.976      64451.332      87120        
      3200   3200           28.889734      313.09308      8950.6947      3147.9231      12098.618      64490.001      87120        
      3300   3300           29.72668       313.82646      9082.7486      3155.2967      12238.045      65075.077      87120        
      3400   3400           30.589922      329.71153      9101.4237      3315.0095      12416.433      65383.114      87120        
      3500   3500           31.467369      335.15109      9246.5083      3369.7003      12616.209      66173.711      87120        
      3600   3600           32.385427      346.55029      9373.0106      3484.311       12857.322      66846.056      87120        
      3700   3700           33.315148      350.59226      9584.699       3524.9501      13109.649      67740.563      87120        
      3800   3800           34.280354      362.59142      9726.4865      3645.5928      13372.079      68476.521      87120        
      3900   3900           35.298444      363.76547      9964.7978      3657.3971      13622.195      69588.265      87120        
      4000   4000           36.331637      368.65712      10138.331      3706.5791      13844.91       70465.242      87120        
      4100   4100           37.397975      365.68908      10363.227      3676.7376      14039.965      71368.89       87120        
      4200   4200           38.459997      362.73319      10504.286      3647.0182      14151.304      71915.009      87120        
      4300   4300           39.571234      367.44366      10500.971      3694.3787      14195.35       72112.101      87120        
      4400   4400           40.677285      357.02957      10580.405      3589.6725      14170.078      72373.53       87120        
      4500   4500           41.807441      358.81644      10463.025      3607.6382      14070.663      71883.147      87120        
      4600   4600           42.923842      352.95989      10380.876      3548.7548      13929.63       71546.661      87120        
      4700   4700           44.017877      346.02293      10238.202      3479.0087      13717.211      70900.172      87120        
      4800   4800           45.097841      344.82608      10007.166      3466.9754      13474.141      69879.103      87120        
      4900   4900           46.162063      337.23137      9829.7027      3390.616       13220.319      69112.95       87120        
      5000   5000           47.199505      325.28154      9687.2618      3270.4692      12957.731      68464.782      87120        
      5100   5100           48.21196       319.00858      9500.1162      3207.3992      12707.515      67641.12       87120        
      5200   5200           49.191469      304.3247       9417.1758      3059.7634      12476.939      67115.331      87120        
      5300   5300           50.163424      295.05167      9304.0994      2966.5299      12270.629      66499.626      87120        
      5400   5400           51.128569      288.51438      9207.7345      2900.8021      12108.537      66068.925      87120        
      5500   5500           52.066662      277.88931      9171.7537      2793.9748      11965.729      65860.043      87120        
      5600   5600           53.010269      265.82213      9205.4805      2672.6481      11878.129      65969.644      87120        
      5700   5700           53.950971      270.29776      9123.1365      2717.6473      11840.784      65728.025      87120        
      5800   5800           54.870842      270.92939      9122.3161      2723.9979      11846.314      65658.059      87120        
      5900   5900           55.808219      271.51354      9172.1487      2729.8711      11902.02       65776.312      87120        
      6000   6000           56.756188      280.66922      9187.3174      2821.9248      12009.242      66034.952      87120        
      6100   6100           57.701207      282.06165      9301.3427      2835.9246      12137.267      66619.298      87120        
      6200   6200           58.670056      291.47069      9351.3191      2930.5257      12281.845      66931.258      87120        
      6300   6300           59.646555      303.51969      9393.2295      3051.6696      12444.899      67159.17       87120        
      6400   6400           60.625921      293.98946      9671.6705      2955.8501      12627.521      68144.932      87120        
      6500   6500           61.645704      306.30651      9715.401       3079.6891      12795.09       68545.021      87120        
      6600   6600           62.66965       309.6195       9831.4081      3112.9987      12944.407      69124.677      87120        
      6700   6700           63.731099      312.59723      9935.9404      3142.9377      13078.878      69600.836      87120        
      6800   6800           64.789446      310.04623      10059.675      3117.2893      13176.964      70042.543      87120        
      6900   6900           65.886414      314.37275      10089.572      3160.7892      13250.361      70172.204      87120        
      7000   7000           66.990014      319.40365      10068.746      3211.3713      13280.117      70130.479      87120        
      7100   7100           68.058924      320.05355      10037.748      3217.9055      13255.654      70029.206      87120        
      7200   7200           69.150401      310.45104      10059.102      3121.3593      13180.461      70060.675      87120        
      7300   7300           70.201208      308.67202      9977.162       3103.4726      13080.635      69754.82       87120        
      7400   7400           71.258149      307.36285      9860.4361      3090.3098      12950.746      69228.502      87120        
      7500   7500           72.30948       308.4173       9706.9511      3100.9115      12807.863      68514.754      87120        
      7600   7600           73.331694      305.79958      9621.0324      3074.5922      12695.625      68108.497      87120        
      7700   7700           74.355714      300.35699      9546.9278      3019.8709      12566.799      67781.195      87120        
      7800   7800           75.365062      294.77617      9471.3506      2963.7599      12435.111      67425.631      87120        
      7900   7900           76.360092      289.22798      9409.8758      2907.9768      12317.853      67150.969      87120        
      8000   8000           77.326828      285.84443      9355.6739      2873.9577      12229.632      66864.279      87120        
      8100   8100           78.268957      283.8303       9292.4811      2853.7071      12146.188      66545.44       87120        
      8200   8200           79.224808      280.71546      9278.326       2822.3897      12100.716      66451.809      87120        
      8300   8300           80.1672        277.39554      9299.7632      2789.0103      12088.773      66494.574      87120        
      8400   8400           81.115516      270.02274      9396.4442      2714.8822      12111.326      66940.604      87120        
      8500   8500           82.079507      285.14467      9292.0403      2866.9222      12158.962      66625.964      87120        
      8600   8600           83.055581      283.94328      9382.1575      2854.8431      12237.001      66992.067      87120        
      8700   8700           84.022297      288.40533      9431.5688      2899.7058      12331.275      67166.621      87120        
      8800   8800           85.018876      293.24752      9478.3878      2948.3904      12426.778      67417.115      87120        
      8900   8900           86.017769      295.82423      9559.8396      2974.2974      12534.137      67847.729      87120        
      9000   9000           87.0329        293.06993      9690.7462      2946.6049      12637.351      68315.948      87120        
      9100   9100           88.037102      298.28173      9745.4852      2999.0058      12744.491      68581.343      87120        
      9200   9200           89.047949      303.74667      9783.9685      3053.9518      12837.92       68757.274      87120        
      9300   9300           90.083353      310.29516      9786.763       3119.792       12906.555      68896.005      87120        
      9400   9400           91.148882      310.31539      9853.2741      3119.9954      12973.27       69160.482      87120        
      9500   9500           92.20122       316.47218      9862.2467      3181.8974      13044.144      69254.27       87120        
      9600   9600           93.249593      318.40867      9858.5249      3201.3674      13059.892      69262.564      87120        
      9700   9700           94.318878      318.01274      9859.3793      3197.3867      13056.766      69217.467      87120        
      9800   9800           95.402917      312.4098       9887.964       3141.0532      13029.017      69198.459      87120        
      9900   9900           96.464802      309.37473      9872.1822      3110.5378      12982.72       69189.647      87120        
     10000   10000          97.529609      306.98627      9835.76        3086.5235      12922.283      69027.381      87120        
     10100   10100          98.568688      313.48274      9693.9321      3151.8408      12845.773      68345.655      87120        
     10200   10200          99.595504      314.89217      9600.6164      3166.0116      12766.628      67944.751      87120        
     10300   10300          100.63741      312.4143       9546.7522      3141.0984      12687.851      67781.091      87120        
     10400   10400          101.63356      304.04823      9547.963       3056.9837      12604.947      67805.534      87120        
     10500   10500          102.64471      305.76474      9442.2507      3074.2419      12516.493      67380.081      87120        
     10600   10600          103.64486      304.10167      9398.168       3057.521       12455.689      67122.351      87120        
     10700   10700          104.62959      298.18664      9407.5312      2998.0497      12405.581      67019.632      87120        
     10800   10800          105.6143       289.85264      9427.7972      2914.2573      12342.055      66973.842      87120        
     10900   10900          106.60797      290.9838       9417.5299      2925.6303      12343.16       67018.759      87120        
     11000   11000          107.57732      294.49054      9395.1369      2960.8881      12356.025      67028.023      87120        
     11100   11100          108.55154      290.20584      9474.6774      2917.8086      12392.486      67349.296      87120        
     11200   11200          109.5208       297.06777      9449.9832      2986.8003      12436.783      67280.641      87120        
     11300   11300          110.52002      296.07143      9511.9705      2976.7828      12488.753      67490.812      87120        
     11400   11400          111.53556      299.41737      9534.1562      3010.4238      12544.58       67654.097      87120        
     11500   11500          112.56322      294.02758      9630.2449      2956.2334      12586.478      68070.969      87120        
     11600   11600          113.59175      301.4723       9620.0058      3031.0846      12651.09       68089.145      87120        
     11700   11700          114.62557      305.31933      9653.5252      3069.7637      12723.289      68193.921      87120        
     11800   11800          115.64583      299.81947      9765.2107      3014.4666      12779.677      68560.397      87120        
     11900   11900          116.69031      306.30647      9740.965       3079.6887      12820.654      68572.308      87120        
     12000   12000          117.7341       303.62701      9813.3785      3052.7486      12866.127      68969.082      87120        
     12100   12100          118.75227      309.97633      9774.7094      3116.5864      12891.296      68924.317      87120        
     12200   12200          119.79494      308.35369      9789.896       3100.272       12890.168      68847.933      87120        
     12300   12300          120.83665      310.21609      9759.0148      3118.997       12878.012      68672.873      87120        
     12400   12400          121.87762      303.76198      9795.7027      3054.1056      12849.808      68777.995      87120        
     12500   12500          122.90598      305.93437      9739.4615      3075.9475      12815.409      68648.243      87120        
     12600   12600          123.95589      301.54556      9718.2756      3031.8211      12750.097      68522.029      87120        
     12700   12700          124.99999      295.31623      9713.9142      2969.1898      12683.104      68443.795      87120        
     12800   12800          126.02926      300.29241      9586.0182      3019.2217      12605.24       67922.832      87120        
     12900   12900          127.05285      296.76553      9535.0779      2983.7614      12518.839      67637.78       87120        
     13000   13000          128.07208      293.60413      9504.696       2951.9759      12456.672      67546.232      87120        
     13100   13100          129.06418      287.12771      9519.6212      2886.8602      12406.481      67486.549      87120        
     13200   13200          130.03907      289.35235      9462.178       2909.2274      12371.405      67262.302      87120        
     13300   13300          131.0298       287.88499      9453.1251      2894.474       12347.599      67232.491      87120        
     13400   13400          132.02636      281.98789      9501.7487      2835.183       12336.932      67431.456      87120        
     13500   13500          133.02589      286.81931      9467.8055      2883.7594      12351.565      67332.854      87120        
     13600   13600          134.00435      291.24665      9451.7695      2928.2731      12380.043      67282.88       87120        
     13700   13700          134.99654      287.42279      9521.9014      2889.827       12411.728      67499.698      87120        
     13800   13800          135.9936       292.47725      9518.009       2940.6459      12458.655      67554.211      87120        
     13900   13900          136.9868       293.5696       9557.9478      2951.6287      12509.577      67775.772      87120        
     14000   14000          138.00488      298.61864      9561.0822      3002.3931      12563.475      67845.861      87120        
     14100   14100          139.00977      301.36034      9604.6815      3029.9589      12634.64       68022.782      87120        
     14200   14200          140.03179      298.05582      9700.4912      2996.7344      12697.226      68309.53       87120        
     14300   14300          141.06314      301.59854      9716.062       3032.3538      12748.416      68421.011      87120        
     14400   14400          142.09987      309.25205      9667.7537      3109.3043      12777.058      68413.551      87120        
     14500   14500          143.13019      307.65136      9714.5464      3093.2105      12807.757      68661.111      87120        
     14600   14600          144.17207      308.57648      9704.0964      3102.5119      12806.608      68491.578      87120        
     14700   14700          145.19464      308.30376      9718.4461      3099.7699      12818.216      68503.77       87120        
     14800   14800          146.23772      305.59044      9744.3386      3072.4895      12816.828      68599.986      87120        
     14900   14900          147.25862      309.16214      9685.2165      3108.4003      12793.617      68459.927      87120        
     15000   15000          148.2891       310.81294      9629.4213      3124.9979      12754.419      68280.352      87120        
     15100   15100          149.28878      303.89157      9656.8353      3055.4086      12712.244      68189.264      87120        
     15200   15200          150.31304      310.40308      9546.3165      3120.8771      12667.194      67722.729      87120        
     15300   15300          151.34256      307.52502      9543.6417      3091.9403      12635.582      67717.319      87120        
     15400   15400          152.34927      310.17691      9491.9226      3118.6031      12610.526      67581.382      87120        
     15500   15500          153.33784      307.22105      9478.3325      3088.8841      12567.217      67491.346      87120        
     15600   15600          154.33717      299.97214      9527.5441      3016.0016      12543.546      67627.639      87120        
     15700   15700          155.33592      299.68401      9494.6597      3013.1046      12507.764      67484.227      87120        
     15800   15800          156.34071      300.8826       9470.3249      3025.1556      12495.481      67368.13       87120        
     15900   15900          157.35118      296.30152      9507.8936      2979.0961      12486.99       67515.029      87120        
     16000   16000          158.36509      299.81508      9486.6008      3014.4224      12501.023      67536.473      87120        
     16100   16100          159.35809      296.43241      9544.2297      2980.4121      12524.642      67725.276      87120        
     16200   16200          160.35596      293.23942      9582.9051      2948.309       12531.214      67860.878      87120        
     16300   16300          161.36287      296.84517      9553.7136      2984.5621      12538.276      67791.796      87120        
     16400   16400          162.38856      304.01734      9495.9947      3056.6732      12552.668      67601.886      87120        
     16500   16500          163.42118      295.80677      9589.355       2974.1219      12563.477      67847.764      87120        
     16600   16600          164.45961      296.65965      9613.6595      2982.6969      12596.356      68054.642      87120        
     16700   16700          165.46273      302.80956      9573.1498      3044.5298      12617.68       67978.306      87120        
     16800   16800          166.49833      300.62149      9612.625       3022.5304      12635.155      68024.196      87120        
     16900   16900          167.52894      302.24155      9617.605       3038.8189      12656.424      68027.946      87120        
     17000   17000          168.56149      304.95527      9614.788       3066.1033      12680.891      68118.372      87120        
     17100   17100          169.58391      302.33905      9627.882       3039.7992      12667.681      68132.996      87120        
     17200   17200          170.6063       302.10071      9619.3204      3037.4028      12656.723      68124.078      87120        
     17300   17300          171.62003      301.9953       9599.1514      3036.3429      12635.494      68060.366      87120        
     17400   17400          172.64762      296.88758      9622.2288      2984.9886      12607.217      68002.769      87120        
     17500   17500          173.67943      297.24472      9621.0162      2988.5793      12609.595      68092.506      87120        
     17600   17600          174.71184      297.79038      9598.7339      2994.0655      12592.799      68041.834      87120        
     17700   17700          175.74109      296.91551      9573.5425      2985.2694      12558.812      67864.599      87120        
     17800   17800          176.76941      294.29909      9570.9429      2958.9632      12529.906      67847.98       87120        
     17900   17900          177.77381      295.60535      9527.7471      2972.0967      12499.844      67701.283      87120        
     18000   18000          178.78848      297.70438      9484.0308      2993.2009      12477.232      67520.377      87120        
     18100   18100          179.77925      289.5173       9555.9115      2910.8857      12466.797      67733.952      87120        
     18200   18200          180.78996      293.82376      9510.2066      2954.1841      12464.391      67560.842      87120        
     18300   18300          181.7912       289.32359      9557.363       2908.9381      12466.301      67690.874      87120        
     18400   18400          182.79851      298.77825      9466.187       3003.9978      12470.185      67414.711      87120        
     18500   18500          183.79424      294.02084      9538.0237      2956.1655      12494.189      67741.664      87120        
     18600   18600          184.81204      296.81007      9533.1764      2984.2093      12517.386      67747.485      87120        
     18700   18700          185.83796      292.35982      9604.8674      2939.4652      12544.333      68004.857      87120        
     18800   18800          186.85641      295.28413      9611.543       2968.8671      12580.41       68060.301      87120        
     18900   18900          187.8927       298.5894       9602.3975      3002.0992      12604.497      68045.856      87120        
     19000   19000          188.92465      298.55378      9629.613       3001.741       12631.354      68158.659      87120        
     19100   19100          189.95327      303.02689      9587.2153      3046.7148      12633.93       67986.154      87120        
     19200   19200          190.97708      299.48287      9639.6349      3011.0824      12650.717      68071.591      87120        
     19300   19300          191.98628      300.52521      9646.5374      3021.5623      12668.1        68214.666      87120        
     19400   19400          193.02116      301.81379      9639.4541      3034.518       12673.972      68222.633      87120        
     19500   19500          194.04511      299.40514      9645.8183      3010.3008      12656.119      68195.007      87120        
     19600   19600          195.07076      297.38683      9647.1583      2990.0082      12637.166      68114.818      87120        
     19700   19700          196.11054      299.6839       9608.3337      3013.1035      12621.437      67987.745      87120        
     19800   19800          197.13441      304.59538      9562.3764      3062.4849      12624.861      67788.633      87120        
     19900   19900          198.15621      305.83456      9557.6724      3074.9439      12632.616      67845.003      87120        
     20000   20000          199.17857      301.46669      9578.9378      3031.0282      12609.966      67914.564      87120        
     20100   20100          200.18852      299.86619      9579.3564      3014.9363      12594.293      67869.48       87120        
     20200   20200          201.1945       301.23918      9555.8428      3028.7407      12584.584      67720.138      87120        
     20300   20300          202.20135      301.59736      9531.388       3032.342       12563.73       67651.984      87120        
     20400   20400          203.21177      299.72878      9526.7699      3013.5548      12540.325      67633.348      87120        
     20500   20500          204.22251      300.97002      9509.5314      3026.0345      12535.566      67591.913      87120        
     20600   20600          205.25192      299.72313      9514.884       3013.4979      12528.382      67612.3        87120        
     20700   20700          206.26419      301.69241      9494.7415      3033.2977      12528.039      67455.262      87120        
     20800   20800          207.27406      297.33751      9557.3033      2989.5123      12546.816      67627.143      87120        
     20900   20900          208.30853      296.94543      9581.6663      2985.5702      12567.237      67760.64       87120        
     21000   21000          209.31211      300.66214      9566.4609      3022.939       12589.4        67825.543      87120        
     21100   21100          210.31064      302.56692      9551.0899      3042.0902      12593.18       67730.452      87120        
     21200   21200          211.31102      301.05984      9568.5987      3026.9376      12595.536      67778.948      87120        
     21300   21300          212.30226      301.31446      9585.0301      3029.4976      12614.528      67939.754      87120        
     21400   21400          213.30699      303.6264       9580.6247      3052.7425      12633.367      67850.716      87120        
     21500   21500          214.31995      305.11077      9578.1808      3067.6668      12645.848      67765.221      87120        
     21600   21600          215.32839      299.02471      9656.5195      3006.4759      12662.995      68064.043      87120        
     21700   21700          216.325        306.59441      9599.3981      3082.5837      12681.982      67946.251      87120        
     21800   21800          217.34041      306.06535      9646.5007      3077.2643      12723.765      68178.117      87120        
     21900   21900          218.3571       306.19335      9653.2504      3078.5514      12731.802      68111.392      87120        
     22000   22000          219.37227      309.53675      9614.1272      3112.1667      12726.294      67974.873      87120        
     22100   22100          220.37205      310.62699      9592.9568      3123.1283      12716.085      67911.487      87120        
     22200   22200          221.38093      309.55906      9592.2758      3112.3911      12704.667      67996.499      87120        
     22300   22300          222.37394      310.4548       9580.6217      3121.3971      12702.019      67964.327      87120        
     22400   22400          223.38074      313.60259      9543.4002      3153.0459      12696.446      67699.756      87120        
     22500   22500          224.3958       303.82459      9641.2712      3054.7352      12696.006      67955.022      87120        
     22600   22600          225.39762      300.98785      9652.3941      3026.2138      12678.608      68083.836      87120        
     22700   22700          226.41759      305.58284      9585.6402      3072.4131      12658.053      67997.579      87120        
     22800   22800          227.42416      300.8481       9614.2742      3024.8087      12639.083      68123.929      87120        
     22900   22900          228.43328      300.46031      9578.1755      3020.9097      12599.085      67890.244      87120        
     23000   23000          229.45328      298.24054      9559.0021      2998.5916      12557.594      67672          87120        
     23100   23100          230.45566      300.38633      9529.4386      3020.1659      12549.605      67543.957      87120        
     23200   23200          231.46229      300.65632      9526.9056      3022.8805      12549.786      67582.644      87120        
     23300   23300          232.45155      297.3198       9557.8465      2989.3342      12547.181      67752.4        87120        
     23400   23400          233.45323      296.97757      9544.7491      2985.8933      12530.642      67738.27       87120        
     23500   23500          234.45872      294.32959      9568.2608      2959.2699      12527.531      67871.073      87120        
     23600   23600          235.48896      295.10127      9559.3914      2967.0285      12526.42       67784.058      87120        
     23700   23700          236.50839      293.11764      9574.089       2947.0845      12521.174      67674.036      87120        
     23800   23800          237.52393      295.55924      9544.1636      2971.633       12515.797      67605.159      87120        
     23900   23900          238.5339       289.81494      9599.763       2913.8783      12513.641      67849.239      87120        
     24000   24000          239.54492      300.10352      9524.0651      3017.3225      12541.388      67755.354      87120        
     24100   24100          240.55349      297.35388      9578.8121      2989.6768      12568.489      67901.154      87120        
     24200   24200          241.57586      293.27303      9620.7459      2948.6469      12569.393      67982.978      87120        
     24300   24300          242.60057      296.78739      9584.9963      2983.9812      12568.977      67808.379      87120        
     24400   24400          243.62137      296.70472      9585.7319      2983.15        12568.882      67855.843      87120        
     24500   24500          244.62266      295.03982      9584.5739      2966.4107      12550.985      67891.181      87120        
     24600   24600          245.64156      297.88329      9571.1099      2994.9997      12566.11       67865.956      87120        
     24700   24700          246.65679      296.07287      9593.8006      2976.7972      12570.598      67901.138      87120        
     24800   24800          247.69055      296.00282      9605.1449      2976.093       12581.238      67975.749      87120        
     24900   24900          248.70839      296.00238      9609.5118      2976.0885      12585.6        67994.997      87120        
     25000   25000          249.7267       298.31977      9591.6419      2999.3882      12591.03       67886.028      87120        
     25100   25100          250.73384      298.66711      9574.2946      3002.8804      12577.175      67764.754      87120        
     25200   25200          251.74538      298.85785      9559.5176      3004.7982      12564.316      67748.741      87120        
     25300   25300          252.75667      299.99734      9572.4156      3016.2549      12588.671      67874.2        87120        
     25400   25400          253.77284      309.72086      9503.2714      3114.0178      12617.289      67606.794      87120        
     25500   25500          254.78484      304.98524      9563.5299      3066.4046      12629.935      67747.753      87120        
     25600   25600          255.79653      304.12685      9564.2693      3057.7741      12622.043      67766.508      87120        
     25700   25700          256.81103      305.67971      9558.6548      3073.3871      12632.042      67787.105      87120        
     25800   25800          257.84091      306.15506      9566.0457      3078.1663      12644.212      67888.192      87120        
     25900   25900          258.85917      304.88492      9575.0823      3065.396       12640.478      67872.834      87120        
     26000   26000          259.89876      300.51968      9631.6093      3021.5067      12653.116      68010.973      87120        
     26100   26100          260.90962      308.2706       9554.6286      3099.4366      12654.065      67722.525      87120        
     26200   26200          261.93105      305.10471      9568.6737      3067.6059      12636.28       67766.598      87120        
     26300   26300          262.95105      307.69084      9539.0994      3093.6075      12632.707      67709.919      87120        
     26400   26400          263.97286      306.6196       9543.4343      3082.8369      12626.271      67723.65       87120        
     26500   26500          264.99345      304.31428      9548.7034      3059.6587      12608.362      67677.286      87120        
     26600   26600          266.01537      302.63511      9553.9716      3042.7758      12596.747      67706.397      87120        
     26700   26700          267.04537      305.46531      9514.3996      3071.2314      12585.631      67643.392      87120        
     26800   26800          268.05104      303.99442      9531.0985      3056.4427      12587.541      67665.984      87120        
     26900   26900          269.06385      304.36525      9525.2681      3060.1711      12585.439      67619.361      87120        
     27000   27000          270.06257      303.07735      9511.1844      3047.2222      12558.407      67510.951      87120        
     27100   27100          271.07057      303.69484      9499.0608      3053.4306      12552.491      67497.747      87120        
     27200   27200          272.06959      296.29127      9582.5555      2978.9931      12561.549      67848.847      87120        
     27300   27300          273.08918      297.26565      9577.5494      2988.7898      12566.339      67831.499      87120        
     27400   27400          274.10407      293.93036      9620.3845      2955.2559      12575.64       67928.509      87120        
     27500   27500          275.12372      296.69706      9587.323       2983.073       12570.396      67793.234      87120        
     27600   27600          276.13497      298.31653      9569.5053      2999.3556      12568.861      67775.933      87120        
     27700   27700          277.14797      293.45147      9632.4139      2950.4409      12582.855      67992.436      87120        
     27800   27800          278.16533      298.26913      9589.4436      2998.8791      12588.323      67970.513      87120        
     27900   27900          279.18508      294.66256      9609.5139      2962.6177      12572.132      67964.304      87120        
     28000   28000          280.18868      297.08633      9561.0477      2986.9869      12548.035      67701.947      87120        
     28100   28100          281.19178      293.12934      9589.3227      2947.2022      12536.525      67778.926      87120        
     28200   28200          282.19916      294.58672      9567.2064      2961.8551      12529.062      67799.108      87120        
     28300   28300          283.20466      292.95659      9570.636       2945.4653      12516.101      67842.098      87120        
     28400   28400          284.21392      292.8102       9566.2441      2943.9935      12510.238      67788.735      87120        
     28500   28500          285.22031      295.19882      9534.4389      2968.0093      12502.448      67621.961      87120        
     28600   28600          286.23103      295.19181      9545.2929      2967.9388      12513.232      67652.445      87120        
     28700   28700          287.24155      293.86373      9554.8664      2954.586       12509.452      67690.202      87120        
     28800   28800          288.25549      289.03763      9607.2372      2906.063       12513.3        67938.551      87120        
     28900   28900          289.26872      297.6314       9530.6323      2992.4671      12523.099      67703.944      87120        
     29000   29000          290.28875      294.09415      9574.2195      2956.9026      12531.122      67791.639      87120        
     29100   29100          291.2866       293.40207      9580.1087      2949.9443      12530.053      67804.542      87120        
     29200   29200          292.28854      299.12543      9517.5125      3007.4886      12525.001      67602.337      87120        
     29300   29300          293.27788      293.6534       9562.4483      2952.4713      12514.92       67769.601      87120        
     29400   29400          294.28169      293.05244      9571.2147      2946.4291      12517.644      67753.642      87120        
     29500   29500          295.28796      305.52112      9458.3809      3071.7926      12530.173      67484.471      87120        
     29600   29600          296.29708      294.5496       9588.0574      2961.4818      12549.539      67935.429      87120        
     29700   29700          297.30711      298.64597      9570.9506      3002.6679      12573.618      67889          87120        
     29800   29800          298.31912      298.27486      9584.0458      2998.9366      12582.982      67825.102      87120        
     29900   29900          299.35005      296.25919      9593.9496      2978.6705      12572.62       67773.917      87120        
     30000   30000          300.36424      306.41122      9487.5869      3080.7418      12568.329      67440.213      87120        
     30100   30100          301.36909      306.51865      9498.5837      3081.822       12580.406      67543.749      87120        
     30200   30200          302.38095      300.9035       9562.3647      3025.3658      12587.73       67793.76       87120        
     30300   30300          303.40348      309.53942      9483.7499      3112.1936      12595.943      67522.815      87120        
     30400   30400          304.42038      304.72069      9557.3315      3063.7448      12621.076      67726.714      87120        
     30500   30500          305.45466      306.04517      9566.8918      3077.0615      12643.953      67701.392      87120        
     30600   30600          306.47153      309.95748      9536.0667      3116.3969      12652.464      67669.146      87120        
     30700   30700          307.47243      311.82205      9505.2209      3135.1438      12640.365      67572.324      87120        
     30800   30800          308.49907      307.67846      9546.4668      3093.483       12639.95       67756.209      87120        
     30900   30900          309.51189      312.06854      9502.5315      3137.6221      12640.154      67583.978      87120        
     31000   31000          310.51092      312.77921      9501.5777      3144.7674      12646.345      67556.8        87120        
     31100   31100          311.52617      307.29665      9557.8051      3089.6442      12647.449      67718.235      87120        
     31200   31200          312.51184      305.6944       9556.053       3073.5347      12629.588      67694.19       87120        
     31300   31300          313.53273      308.02947      9522.14        3097.0122      12619.152      67587.738      87120        
     31400   31400          314.54464      311.94152      9459.8783      3136.345       12596.223      67358.972      87120        
     31500   31500          315.56014      306.20405      9502.9847      3078.6589      12581.644      67537.827      87120        
     31600   31600          316.56388      299.6503       9555.8314      3012.7658      12568.597      67708.02       87120        
     31700   31700          317.57836      300.33498      9549.8334      3019.6497      12569.483      67696.177      87120        
     31800   31800          318.59349      300.98935      9544.9612      3026.2289      12571.19       67618.397      87120        
     31900   31900          319.60963      301.20336      9555.5296      3028.3806      12583.91       67783.422      87120        
     32000   32000          320.63426      300.78024      9553.7843      3024.1264      12577.911      67851.288      87120        
     32100   32100          321.63763      298.31554      9559.2267      2999.3457      12558.572      67735.09       87120        
     32200   32200          322.63764      296.24984      9578.4434      2978.5766      12557.02       67763.606      87120        
     32300   32300          323.62588      295.32485      9583.4404      2969.2764      12552.717      67788.293      87120        
     32400   32400          324.62946      296.40098      9562.2638      2980.0962      12542.36       67726.489      87120        
     32500   32500          325.63409      297.80441      9534.1254      2994.2066      12528.332      67649.665      87120        
     32600   32600          326.62189      297.49177      9513.9366      2991.0633      12505          67531.275      87120        
     32700   32700          327.64357      299.31466      9485.9232      3009.3911      12495.314      67414.233      87120        
     32800   32800          328.64906      296.21201      9521.5212      2978.1962      12499.717      67598.009      87120        
     32900   32900          329.6529       294.14206      9526.732       2957.3844      12484.116      67601.33       87120        
     33000   33000          330.68143      303.5278       9425.3373      3051.7511      12477.088      67247.217      87120        
     33100   33100          331.67286      292.09575      9551.2099      2936.8102      12488.02       67602.053      87120        
     33200   33200          332.67395      299.0853       9477.8141      3007.0851      12484.899      67395.328      87120        
     33300   33300          333.69238      296.28287      9506.3643      2978.9086      12485.273      67520.572      87120        
     33400   33400          334.69419      302.28392      9466.3301      3039.2448      12505.575      67446.916      87120        
     33500   33500          335.69184      300.4734       9513.1156      3021.0414      12534.157      67611.833      87120        
     33600   33600          336.69724      297.30334      9556.0437      2989.1687      12545.212      67712.78       87120        
     33700   33700          337.70628      300.30617      9524.4072      3019.36        12543.767      67659.511      87120        
     33800   33800          338.7066       298.95891      9523.0844      3005.8142      12528.899      67652.233      87120        
     33900   33900          339.72141      300.47001      9497.1342      3021.0073      12518.142      67566.389      87120        
     34000   34000          340.73231      297.92779      9538.1938      2995.4472      12533.641      67684.49       87120        
     34100   34100          341.74177      296.57267      9576.9245      2981.8224      12558.747      67767.401      87120        
     34200   34200          342.75124      297.51377      9558.8548      2991.2845      12550.139      67733.471      87120        
     34300   34300          343.7846       298.67593      9529.6014      3002.9691      12532.571      67704.658      87120        
     34400   34400          344.79772      296.50159      9537.9428      2981.1077      12519.05       67713.303      87120        
     34500   34500          345.81137      296.4431       9518.2094      2980.5197      12498.729      67621.565      87120        
     34600   34600          346.80974      300.61712      9457.8665      3022.4864      12480.353      67418.193      87120        
     34700   34700          347.82381      298.21084      9477.9755      2998.293       12476.269      67445.789      87120        
     34800   34800          348.82996      291.02284      9535.1108      2926.0229      12461.134      67621.22       87120        
     34900   34900          349.83899      292.99267      9512.2817      2945.828       12458.11       67487.579      87120        
     35000   35000          350.84861      297.02736      9491.9219      2986.394       12478.316      67463.864      87120        
     35100   35100          351.83783      296.28949      9501.366       2978.9752      12480.341      67520.215      87120        
     35200   35200          352.83253      295.35711      9495.4449      2969.6009      12465.046      67438.465      87120        
     35300   35300          353.84422      297.71231      9466.4479      2993.2807      12459.729      67316.956      87120        
     35400   35400          354.84291      297.2599       9479.8755      2988.732       12468.607      67412.076      87120        
     35500   35500          355.83212      293.36603      9530.4092      2949.582       12479.991      67597.764      87120        
     35600   35600          356.83857      293.02904      9554.9403      2946.1938      12501.134      67746.834      87120        
     35700   35700          357.83326      293.10344      9581.9413      2946.9418      12528.883      67774.581      87120        
     35800   35800          358.84422      298.81574      9530.0803      3004.3749      12534.455      67554.12       87120        
     35900   35900          359.83886      296.87468      9547.9806      2984.8588      12532.839      67601.939      87120        
     36000   36000          360.85077      297.4156       9556.9793      2990.2974      12547.277      67700.923      87120        
     36100   36100          361.83266      304.33457      9490.5411      3059.8627      12550.404      67506.819      87120        
     36200   36200          362.83269      304.04114      9492.8089      3056.9124      12549.721      67473.843      87120        
     36300   36300          363.83548      299.79036      9567.507       3014.1739      12581.681      67725.512      87120        
     36400   36400          364.83453      299.85156      9565.4498      3014.7892      12580.239      67665.346      87120        
     36500   36500          365.83213      300.56722      9550.0397      3021.9847      12572.024      67591.35       87120        
     36600   36600          366.8388       304.829        9489.0977      3064.8337      12553.931      67386.97       87120        
     36700   36700          367.83456      304.91593      9481.3555      3065.7078      12547.063      67366.76       87120        
     36800   36800          368.81388      302.57539      9500.4609      3042.1754      12542.636      67380.373      87120        
     36900   36900          369.81243      301.98213      9507.5061      3036.2106      12543.717      67420.516      87120        
     37000   37000          370.79431      301.08087      9529.3981      3027.1491      12556.547      67509.087      87120        
     37100   37100          371.78002      303.78848      9506.0195      3054.3721      12560.392      67524.35       87120        
     37200   37200          372.78367      305.66704      9480.2728      3073.2596      12553.532      67444.67       87120        
     37300   37300          373.75988      309.92858      9438.1518      3116.1064      12554.258      67167.799      87120        
     37400   37400          374.77478      309.35932      9453.2853      3110.3828      12563.668      67210.401      87120        
     37500   37500          375.7789       304.96402      9503.0197      3066.1913      12569.211      67447.077      87120        
     37600   37600          376.79816      306.36719      9508.9422      3080.2992      12589.241      67551.296      87120        
     37700   37700          377.80216      309.10872      9491.567       3107.8633      12599.43       67533.072      87120        
     37800   37800          378.8251       305.59354      9532.2991      3072.5206      12604.82       67593.316      87120        
     37900   37900          379.8414       308.41259      9493.6205      3100.8641      12594.485      67392.153      87120        
     38000   38000          380.85882      302.75258      9522.8519      3043.9569      12566.809      67487.421      87120        
     38100   38100          381.85895      305.20734      9504.1648      3068.6377      12572.803      67553.544      87120        
     38200   38200          382.84264      303.98073      9509.5634      3056.305       12565.868      67590.08       87120        
     38300   38300          383.84903      301.11921      9550.856       3027.5346      12578.391      67661.483      87120        
     38400   38400          384.84657      300.39732      9549.6058      3020.2764      12569.882      67641.5        87120        
     38500   38500          385.86468      304.13401      9494.9114      3057.8461      12552.758      67403.363      87120        
     38600   38600          386.86451      299.08163      9550.6518      3007.0481      12557.7        67709.046      87120        
     38700   38700          387.88151      301.82687      9497.9203      3034.6496      12532.57       67573.84       87120        
     38800   38800          388.88508      303.95674      9446.1095      3056.0638      12502.173      67329.967      87120        
     38900   38900          389.9006       298.95679      9479.8128      3005.793       12485.606      67294.806      87120        
     39000   39000          390.90161      293.96998      9538.3288      2955.6542      12493.983      67612.884      87120        
     39100   39100          391.89287      298.02611      9518.5687      2996.4357      12515.004      67603.885      87120        
     39200   39200          392.87872      300.47757      9482.1825      3021.0833      12503.266      67362.242      87120        
     39300   39300          393.86843      294.59292      9554.5078      2961.9175      12516.425      67614.118      87120        
     39400   39400          394.87275      289.77296      9605.3342      2913.4563      12518.79       67881.82       87120        
     39500   39500          395.88554      294.16226      9541.8577      2957.5875      12499.445      67650.853      87120        
     39600   39600          396.89501      295.60259      9521.033       2972.069       12493.102      67588.808      87120        
     39700   39700          397.89539      292.68139      9548.6319      2942.6984      12491.33       67606.869      87120        
     39800   39800          398.91254      290.56317      9589.4659      2921.4012      12510.867      67850.156      87120        
     39900   39900          399.91178      294.45299      9547.2838      2960.5106      12507.794      67635.964      87120        
     40000   40000          400.92535      295.93519      9528.7847      2975.413       12504.198      67521.662      87120        
     40100   40100          401.90758      290.05722      9584.1709      2916.3142      12500.485      67770.007      87120        
     40200   40200          402.91         294.28663      9533.9423      2958.8379      12492.78       67605.356      87120        
     40300   40300          403.91912      291.89087      9558.9151      2934.7503      12493.665      67675.268      87120        
     40400   40400          404.92165      297.69534      9501.6813      2993.11        12494.791      67413.346      87120        
     40500   40500          405.92666      294.98725      9526.2265      2965.8822      12492.109      67501.497      87120        
     40600   40600          406.94039      295.6418       9531.4274      2972.4632      12503.891      67605.452      87120        
     40700   40700          407.94268      299.09532      9518.2424      3007.1858      12525.428      67605.458      87120        
     40800   40800          408.95892      300.34925      9524.9477      3019.7931      12544.741      67599.13       87120        
     40900   40900          409.97075      296.83308      9577.6763      2984.4406      12562.117      67762.237      87120        
     41000   41000          410.96579      302.98255      9528.8683      3046.269       12575.137      67620.219      87120        
     41100   41100          411.95068      299.55833      9584.3426      3011.841       12596.184      67835.933      87120        
     41200   41200          412.9499       306.37824      9509.6733      3080.4102      12590.084      67562.28       87120        
     41300   41300          413.98053      301.47242      9571.8524      3031.0858      12602.938      67792.26       87120        
     41400   41400          414.98839      305.57983      9533.8077      3072.3828      12606.191      67664.242      87120        
     41500   41500          416.00282      304.78142      9541.0705      3064.3554      12605.426      67673.055      87120        
     41600   41600          417.01111      301.08795      9592.6974      3027.2203      12619.918      67894.159      87120        
     41700   41700          418.01876      301.75273      9574.5578      3033.9041      12608.462      67778.303      87120        
     41800   41800          419.0354       302.5359       9569.3472      3041.7783      12611.125      67764.699      87120        
     41900   41900          420.05871      304.5191       9531.1703      3061.718       12592.888      67597.012      87120        
     42000   42000          421.09092      305.45363      9523.487       3071.114       12594.601      67571.261      87120        
     42100   42100          422.09989      302.56135      9545.0463      3042.0342      12587.08       67655.466      87120        
     42200   42200          423.10533      302.22215      9525.6152      3038.6238      12564.239      67621.586      87120        
     42300   42300          424.10982      305.24793      9464.7911      3069.0458      12533.837      67414.085      87120        
     42400   42400          425.11734      301.98566      9468.5528      3036.2461      12504.799      67337.694      87120        
     42500   42500          426.1162       296.02292      9513.3408      2976.295       12489.636      67335.318      87120        
     42600   42600          427.12181      296.11845      9489.4701      2977.2555      12466.726      67305.671      87120        
     42700   42700          428.11935      299.8994       9441.7007      3015.2703      12456.971      67223.541      87120        
     42800   42800          429.14239      296.53477      9475.018       2981.4413      12456.459      67361.089      87120        
     42900   42900          430.13877      299.16275      9459.5456      3007.8638      12467.409      67255.314      87120        
     43000   43000          431.15175      298.59841      9479.687       3002.1898      12481.877      67285.214      87120        
     43100   43100          432.14351      299.94038      9482.0037      3015.6823      12497.686      67294.296      87120        
     43200   43200          433.14222      302.61245      9477.1972      3042.548       12519.745      67359.719      87120        
     43300   43300          434.14458      298.94136      9532.7535      3005.6379      12538.391      67568.7        87120        
     43400   43400          435.1497       299.94489      9532.3521      3015.7276      12548.08       67525.253      87120        
     43500   43500          436.1637       306.95581      9488.0535      3086.2173      12574.271      67415.159      87120        
     43600   43600          437.16922      304.56401      9545.0903      3062.1695      12607.26       67664.308      87120        
     43700   43700          438.19172      306.25871      9554.6393      3079.2085      12633.848      67733.249      87120        
     43800   43800          439.19759      309.49497      9534.1143      3111.7467      12645.861      67710.601      87120        
     43900   43900          440.2162       309.66462      9530.7157      3113.4525      12644.168      67671.317      87120        
     44000   44000          441.23621      307.03741      9559.3053      3087.0377      12646.343      67714.694      87120        
     44100   44100          442.21858      305.95832      9580.2841      3076.1882      12656.472      67821.123      87120        
     44200   44200          443.22679      308.24047      9555.607       3099.1337      12654.741      67770.788      87120        
     44300   44300          444.24631      307.17597      9562.1992      3088.4309      12650.63       67821.655      87120        
     44400   44400          445.25331      305.49499      9558.2727      3071.5298      12629.803      67766.4        87120        
     44500   44500          446.28008      304.14322      9557.6466      3057.9388      12615.585      67727          87120        
     44600   44600          447.28055      303.37775      9533.1094      3050.2425      12583.352      67629.28       87120        
     44700   44700          448.28318      301.65527      9502.4495      3032.9242      12535.374      67466.196      87120        
     44800   44800          449.30814      294.0311       9560.917       2956.2687      12517.186      67652.482      87120        
     44900   44900          450.33166      299.24635      9492.858       3008.7042      12501.562      67495.155      87120        
     45000   45000          451.33996      299.50361      9478.7535      3011.2909      12490.044      67395.397      87120        
     45100   45100          452.35083      297.37075      9491.1114      2989.8465      12480.958      67383.704      87120        
     45200   45200          453.36605      294.61823      9489.2577      2962.1719      12451.43       67359.085      87120        
     45300   45300          454.36283      298.67444      9429.8925      3002.9541      12432.847      67235.879      87120        
     45400   45400          455.37907      298.14271      9425.0319      2997.608       12422.64       67221.742      87120        
     45500   45500          456.37679      293.60729      9447.7121      2952.0076      12399.72       67246.309      87120        
     45600   45600          457.38449      293.27624      9442.2088      2948.6792      12390.888      67181.045      87120        
     45700   45700          458.38166      298.30869      9405.0318      2999.2768      12404.309      67037.984      87120        
     45800   45800          459.39027      290.86886      9500.2988      2924.4747      12424.774      67325.568      87120        
     45900   45900          460.40042      295.45368      9482.7502      2970.5718      12453.322      67372.928      87120        
     46000   46000          461.43137      297.88979      9477.3654      2995.0651      12472.431      67441.68       87120        
     46100   46100          462.42837      292.06594      9546.112       2936.5105      12482.622      67645.502      87120        
     46200   46200          463.42968      298.68394      9492.8262      3003.0497      12495.876      67443.852      87120        
     46300   46300          464.41615      298.99848      9508.0981      3006.2121      12514.31       67501.846      87120        
     46400   46400          465.42296      300.19909      9519.7909      3018.2834      12538.074      67580.339      87120        
     46500   46500          466.41669      297.1804       9557.9514      2987.9326      12545.884      67711.202      87120        
     46600   46600          467.4304       296.38737      9555.2043      2979.9593      12535.164      67727.006      87120        
     46700   46700          468.42801      300.54351      9482.8825      3021.7463      12504.629      67497.894      87120        
     46800   46800          469.43775      293.54466      9529.6916      2951.3779      12481.07       67557.85       87120        
     46900   46900          470.43152      296.35225      9479.3594      2979.6062      12458.966      67312.553      87120        
     47000   47000          471.44273      292.09892      9514.9197      2936.8421      12451.762      67431.421      87120        
     47100   47100          472.42189      297.84915      9462.7226      2994.6564      12457.379      67326.91       87120        
     47200   47200          473.40255      295.47931      9478.6591      2970.8295      12449.489      67349.561      87120        
     47300   47300          474.40924      299.7043       9433.2121      3013.3086      12446.521      67165.122      87120        
     47400   47400          475.39288      298.73633      9407.6472      3003.5764      12411.224      66951.97       87120        
     47500   47500          476.37573      299.15449      9383.6157      3007.7807      12391.396      66866.624      87120        
     47600   47600          477.3755       297.03165      9400.3149      2986.4371      12386.752      66897.746      87120        
     47700   47700          478.35269      299.38413      9411.0448      3010.0896      12421.134      66998.618      87120        
     47800   47800          479.33987      305.27453      9382.6091      3069.3133      12451.922      66974.436      87120        
     47900   47900          480.32338      303.0056       9452.0968      3046.5008      12498.598      67215.591      87120        
     48000   48000          481.3072       297.29816      9546.9421      2989.1167      12536.059      67509.561      87120        
     48100   48100          482.27744      305.38048      9492.5701      3070.3785      12562.949      67378.002      87120        
     48200   48200          483.26006      307.5011       9488.6512      3091.6998      12580.351      67380.665      87120        
     48300   48300          484.2638       305.62045      9530.6696      3072.7912      12603.461      67587.985      87120        
     48400   48400          485.25337      307.8961       9534.7256      3095.6712      12630.397      67621.093      87120        
     48500   48500          486.2586       308.44561      9566.4202      3101.1961      12667.616      67732.762      87120        
     48600   48600          487.23953      310.40069      9569.0196      3120.8531      12689.873      67711.725      87120        
     48700   48700          488.21999      314.08712      9531.4357      3157.9174      12689.353      67600.643      87120        
     48800   48800          489.21603      310.53044      9570.6121      3122.1576      12692.77       67791.178      87120        
     48900   48900          490.20013      310.86693      9586.6269      3125.5407      12712.168      67866.729      87120        
     49000   49000          491.18044      306.65602      9617.5949      3083.2032      12700.798      67891.512      87120        
     49100   49100          492.14828      309.7305       9561.6662      3114.1147      12675.781      67607.929      87120        
     49200   49200          493.13178      306.29601      9564.1871      3079.5835      12643.771      67648.478      87120        
     49300   49300          494.14463      305.35402      9542.413       3070.1125      12612.525      67633.563      87120        
     49400   49400          495.12745      304.63047      9521.6145      3062.8377      12584.452      67560.583      87120        
     49500   49500          496.12842      306.36433      9459.8569      3080.2704      12540.127      67261.647      87120        
     49600   49600          497.12992      303.25906      9464.7286      3049.0492      12513.778      67208.813      87120        
     49700   49700          498.1185       296.91814      9515.4021      2985.2958      12500.698      67369.959      87120        
     49800   49800          499.11344      294.14783      9516.9325      2957.4424      12474.375      67429.463      87120        
     49900   49900          500.09406      298.65664      9441.4773      3002.7751      12444.252      67230.836      87120        
     50000   50000          501.08874      296.21275      9441.2074      2978.2037      12419.411      67161.651      87120        
     50100   50100          502.07387      297.76912      9419.5562      2993.8518      12413.408      67032.158      87120        
     50200   50200          503.04668      300.59069      9411.0802      3022.2207      12433.301      66981.328      87120        
     50300   50300          504.04001      299.5266       9425.8972      3011.522       12437.419      67072.958      87120        
     50400   50400          505.02136      298.06154      9453.3629      2996.7919      12450.155      67287.519      87120        
     50500   50500          506.02024      294.82277      9505.5452      2964.2284      12469.774      67487.913      87120        
     50600   50600          507.01237      297.51301      9510.493       2991.2768      12501.77       67471.41       87120        
     50700   50700          508.00882      299.89037      9512.1541      3015.1795      12527.334      67489.618      87120        
     50800   50800          508.99354      297.68694      9546.9658      2993.0255      12539.991      67611.952      87120        
     50900   50900          509.99154      294.94469      9571.1466      2965.4542      12536.601      67701.906      87120        
     51000   51000          510.97384      302.37642      9514.381       3040.1749      12554.556      67619.84       87120        
     51100   51100          511.9394       295.10253      9590.9582      2967.0411      12557.999      67870.642      87120        
     51200   51200          512.91209      303.79879      9475.6068      3054.4758      12530.083      67453.137      87120        
     51300   51300          513.91015      297.43862      9537.2807      2990.5289      12527.81       67601.399      87120        
     51400   51400          514.89332      297.52352      9525.1524      2991.3824      12516.535      67487.336      87120        
     51500   51500          515.88429      298.62922      9486.0308      3002.4994      12488.53       67383.974      87120        
     51600   51600          516.86659      294.97845      9489.9173      2965.7936      12455.711      67403.216      87120        
     51700   51700          517.85097      295.25414      9447.1347      2968.5656      12415.7        67259.59       87120        
     51800   51800          518.84663      294.17862      9423.2825      2957.7519      12381.034      67028.43       87120        
     51900   51900          519.8244       294.45977      9403.8555      2960.5787      12364.434      66950.092      87120        
     52000   52000          520.80115      296.32627      9364.0088      2979.345       12343.354      66817.763      87120        
     52100   52100          521.7851       292.15399      9413.6717      2937.3958      12351.068      67041.801      87120        
     52200   52200          522.75935      294.20154      9424.5894      2957.9824      12382.572      67157.116      87120        
     52300   52300          523.74258      298.69902      9404.9687      3003.2013      12408.17       67031.704      87120        
     52400   52400          524.72961      294.39488      9454.4051      2959.9263      12414.331      67147.855      87120        
     52500   52500          525.72298      296.77513      9453.6405      2983.858       12437.498      67191.824      87120        
     52600   52600          526.68884      305.22313      9387.0293      3068.7965      12455.826      66965.537      87120        
     52700   52700          527.66198      292.98424      9533.628       2945.7434      12479.371      67459.51       87120        
     52800   52800          528.63785      299.33425      9487.3842      3009.588       12496.972      67363.419      87120        
     52900   52900          529.63046      301.30419      9503.6342      3029.3944      12533.029      67423.177      87120        
     53000   53000          530.6067       301.15159      9556.1543      3027.8601      12584.014      67633.933      87120        
     53100   53100          531.56358      301.46486      9581.4024      3031.0098      12612.412      67858.101      87120        
     53200   53200          532.53039      302.11734      9574.598       3037.57        12612.168      67803.897      87120        
     53300   53300          533.52235      304.85503      9563.7134      3065.0955      12628.809      67739.394      87120        
     53400   53400          534.51548      306.73553      9559.5717      3084.0025      12643.574      67653.466      87120        
     53500   53500          535.48927      304.96437      9558.3899      3066.1949      12624.585      67580.529      87120        
     53600   53600          536.47583      306.31391      9524.4744      3079.7634      12604.238      67556.863      87120        
     53700   53700          537.46403      303.82417      9539.3998      3054.7309      12594.131      67695.601      87120        
     53800   53800          538.44201      302.6598       9535.6014      3043.024       12578.625      67509.345      87120        
     53900   53900          539.42692      304.16125      9508.4977      3058.12        12566.618      67391.902      87120        
     54000   54000          540.42151      302.75467      9498.0641      3043.9779      12542.042      67356.805      87120        
     54100   54100          541.3824       302.91553      9474.7236      3045.5953      12520.319      67356.897      87120        
     54200   54200          542.36882      300.49541      9487.6493      3021.2627      12508.912      67439.464      87120        
     54300   54300          543.3455       304.42674      9433.4344      3060.7894      12494.224      67167.508      87120        
     54400   54400          544.30724      298.98313      9473.4201      3006.0578      12479.478      67183.268      87120        
     54500   54500          545.28715      304.08068      9400.4075      3057.31        12457.717      66977.404      87120        
     54600   54600          546.27314      303.62137      9400.8391      3052.6919      12453.531      67037.915      87120        
     54700   54700          547.26251      302.57054      9406.8768      3042.1266      12449.003      67083.904      87120        
     54800   54800          548.24741      302.20594      9425.4625      3038.4609      12463.923      67112.808      87120        
     54900   54900          549.21696      300.75939      9457.6973      3023.9168      12481.614      67166.747      87120        
     55000   55000          550.20222      301.91417      9450.2862      3035.5273      12485.813      67204.319      87120        
     55100   55100          551.18178      303.19988      9447.209       3048.4542      12495.663      67263.742      87120        
     55200   55200          552.16663      299.12235      9480.6911      3007.4575      12488.149      67443.561      87120        
     55300   55300          553.1347       297.86627      9478.9859      2994.8286      12473.815      67357.104      87120        
     55400   55400          554.11828      297.004        9501.0484      2986.1591      12487.207      67429.641      87120        
     55500   55500          555.09457      295.56598      9532.5763      2971.7009      12504.277      67540.524      87120        
     55600   55600          556.08812      294.42647      9547.8613      2960.2439      12508.105      67533.744      87120        
     55700   55700          557.06718      298.20602      9491.0421      2998.2445      12489.287      67361.283      87120        
     55800   55800          558.06314      292.18863      9533.8574      2937.744       12471.601      67504.889      87120        
     55900   55900          559.039        301.28885      9416.949       3029.2401      12446.189      67147.67       87120        
     56000   56000          560.02585      299.86136      9409.3913      3014.8878      12424.279      67059.007      87120        
     56100   56100          560.98514      296.32962      9431.9233      2979.3786      12411.302      67040.369      87120        
     56200   56200          561.95477      294.35153      9447.9052      2959.4904      12407.396      67145.601      87120        
     56300   56300          562.93727      296.42104      9428.6767      2980.2979      12408.975      67157.251      87120        
     56400   56400          563.91088      295.51271      9440.0236      2971.1652      12411.189      67189.438      87120        
     56500   56500          564.90722      296.22051      9436.8631      2978.2817      12415.145      67107.347      87120        
     56600   56600          565.88561      299.64686      9434.3207      3012.7311      12447.052      67064.979      87120        
     56700   56700          566.86033      298.13831      9468.7898      2997.5638      12466.354      67190.339      87120        
     56800   56800          567.84748      298.22881      9482.1386      2998.4736      12480.612      67402.405      87120        
     56900   56900          568.81947      300.38683      9475.808       3020.171       12495.979      67425.844      87120        
     57000   57000          569.80667      298.10903      9507.1314      2997.2693      12504.401      67434.654      87120        
[...]
    986200   986200         9602.9289      307.5779       9532.5489      3092.472       12625.021      67454.767      87120        
    986300   986300         9603.869       311.27516      9473.7813      3129.6453      12603.427      67260.755      87120        
    986400   986400         9604.8095      304.17602      9513.1601      3058.2685      12571.429      67361.463      87120        
    986500   986500         9605.7301      303.729        9472.2933      3053.7741      12526.067      67185.923      87120        
    986600   986600         9606.6619      299.05004      9492.8225      3006.7305      12499.553      67242.158      87120        
    986700   986700         9607.5928      302.37376      9426.693       3040.1481      12466.841      66964.473      87120        
    986800   986800         9608.525       301.44242      9429.0326      3030.7842      12459.817      67091.643      87120        
    986900   986900         9609.4578      302.13735      9381.1363      3037.7712      12418.907      66913.785      87120        
    987000   987000         9610.3889      299.92453      9371.9767      3015.5229      12387.5        66691.388      87120        
    987100   987100         9611.3084      297.8272       9404.0129      2994.4357      12398.449      66724.113      87120        
    987200   987200         9612.2154      303.09557      9343.0459      3047.4054      12390.451      66605.872      87120        
    987300   987300         9613.1442      300.64574      9377.4383      3022.7742      12400.212      66876.506      87120        
    987400   987400         9614.071       297.9039       9419.5054      2995.207       12414.712      67092.222      87120        
    987500   987500         9615.0021      303.72244      9368.8507      3053.7081      12422.559      66736.144      87120        
    987600   987600         9615.9396      296.08411      9459.698       2976.9102      12436.608      67007.784      87120        
    987700   987700         9616.871       298.54302      9457.4784      3001.6328      12459.111      67159.811      87120        
    987800   987800         9617.8119      304.06831      9426.0678      3057.1856      12483.253      67187.984      87120        
    987900   987900         9618.7532      300.05303      9464.7007      3016.8149      12481.516      67317.946      87120        
    988000   988000         9619.6909      297.89315      9489.8892      2995.0989      12484.988      67362.795      87120        
    988100   988100         9620.6135      299.11856      9481.018       3007.4195      12488.437      67184.415      87120        
    988200   988200         9621.561       300.31978      9484.5644      3019.4969      12504.061      67227.429      87120        
    988300   988300         9622.4918      298.91059      9502.0482      3005.3285      12507.377      67409.269      87120        
    988400   988400         9623.429       301.83501      9465.4241      3034.7314      12500.155      67273.659      87120        
    988500   988500         9624.3729      301.84605      9445.768       3034.8424      12480.61       67145.869      87120        
    988600   988600         9625.3236      293.92024      9509.161       2955.1542      12464.315      67349.541      87120        
    988700   988700         9626.251       299.36746      9432.8281      3009.922       12442.75       67172.625      87120        
    988800   988800         9627.1949      295.68538      9457.3393      2972.9013      12430.241      67215.784      87120        
    988900   988900         9628.1283      298.00036      9440.3253      2996.1767      12436.502      67027.373      87120        
    989000   989000         9629.0692      293.48199      9487.9969      2950.7478      12438.745      67107.254      87120        
    989100   989100         9630.0015      299.20864      9410.8741      3008.3251      12419.199      66953.848      87120        
    989200   989200         9630.9232      294.95478      9436.9361      2965.5556      12402.492      67172.089      87120        
    989300   989300         9631.8614      299.28257      9353.0669      3009.0685      12362.135      66810.352      87120        
    989400   989400         9632.7876      294.90529      9391.3375      2965.0581      12356.396      66724.432      87120        
    989500   989500         9633.7144      291.48967      9422.8468      2930.7165      12353.563      66890.461      87120        
    989600   989600         9634.6585      293.42374      9411.5745      2950.1621      12361.737      66974.65       87120        
    989700   989700         9635.5767      295.56234      9408.8919      2971.6643      12380.556      66908.703      87120        
    989800   989800         9636.515       298.42676      9368.8499      3000.4639      12369.314      66787.564      87120        
    989900   989900         9637.4537      293.18807      9422.6985      2947.7927      12370.491      67046.4        87120        
    990000   990000         9638.4037      299.76126      9389.9708      3013.8814      12403.852      66943.861      87120        
    990100   990100         9639.3448      299.87133      9407.768       3014.988       12422.756      66952.967      87120        
    990200   990200         9640.2795      306.43341      9369.0136      3080.9649      12449.979      66930.412      87120        
    990300   990300         9641.2159      300.16248      9459.8823      3017.9153      12477.798      67233.869      87120        
    990400   990400         9642.1392      302.34298      9463.9862      3039.8386      12503.825      67280.082      87120        
    990500   990500         9643.0643      302.82388      9485.3533      3044.6737      12530.027      67418.103      87120        
    990600   990600         9644.0092      309.46853      9458.0073      3111.4809      12569.488      67335.328      87120        
    990700   990700         9644.9524      304.99703      9541.2594      3066.5232      12607.783      67533.087      87120        
    990800   990800         9645.9007      308.84632      9516.8701      3105.225       12622.095      67400.182      87120        
    990900   990900         9646.8342      307.36597      9525.48        3090.3412      12615.821      67346.241      87120        
    991000   991000         9647.7896      307.79255      9522.6669      3094.6302      12617.297      67400.149      87120        
    991100   991100         9648.7301      310.39232      9496.5603      3120.7689      12617.329      67402.656      87120        
    991200   991200         9649.6655      306.76043      9519.7208      3084.2529      12603.974      67534.791      87120        
    991300   991300         9650.5909      305.51765      9511.8648      3071.7576      12583.622      67331.319      87120        
    991400   991400         9651.5317      307.46363      9494.7172      3091.323       12586.04       67190.75       87120        
    991500   991500         9652.4795      308.71042      9453.5018      3103.8586      12557.36       67108.774      87120        
    991600   991600         9653.434       304.59597      9476.608       3062.4908      12539.099      67221.394      87120        
    991700   991700         9654.3806      306.37378      9421.8391      3080.3654      12502.204      67068.832      87120        
    991800   991800         9655.3302      301.387        9443.7479      3030.227       12473.975      67059.687      87120        
    991900   991900         9656.2725      298.87519      9441.588       3004.9726      12446.561      66855.583      87120        
    992000   992000         9657.2037      298.74001      9451.4454      3003.6134      12455.059      67063.27       87120        
    992100   992100         9658.1342      303.24172      9417.9218      3048.8748      12466.797      67109.163      87120        
    992200   992200         9659.0512      300.47228      9444.4         3021.0302      12465.43       67161.433      87120        
    992300   992300         9659.9847      296.50272      9466.4517      2981.1191      12447.571      67015.64       87120        
    992400   992400         9660.9162      296.4957       9466.7273      2981.0485      12447.776      67057.6        87120        
    992500   992500         9661.8329      296.86342      9457.0823      2984.7457      12441.828      67095.803      87120        
    992600   992600         9662.7739      299.32844      9434.5144      3009.5296      12444.044      67097.081      87120        
    992700   992700         9663.7016      295.66709      9488.7002      2972.7174      12461.418      67228.043      87120        
    992800   992800         9664.6358      294.77011      9524.1432      2963.6989      12487.842      67340.921      87120        
    992900   992900         9665.5637      296.55585      9507.1466      2981.6533      12488.8        67343.723      87120        
    993000   993000         9666.5132      297.33559      9506.4397      2989.493       12495.933      67353.22       87120        
    993100   993100         9667.4494      297.87966      9499.8972      2994.9633      12494.86       67210.605      87120        
    993200   993200         9668.3794      296.38627      9525.8176      2979.9482      12505.766      67351.213      87120        
    993300   993300         9669.3196      299.45853      9497.5183      3010.8376      12508.356      67367.467      87120        
    993400   993400         9670.2408      295.42597      9541.8721      2970.2931      12512.165      67526.999      87120        
    993500   993500         9671.1773      294.59519      9543.7401      2961.9403      12505.68       67406.79       87120        
    993600   993600         9672.1182      295.99733      9531.5747      2976.0377      12507.612      67314.087      87120        
    993700   993700         9673.0479      300.19595      9479.6387      3018.2518      12497.89       67139.729      87120        
    993800   993800         9674.0001      297.12018      9508.2461      2987.3272      12495.573      67308.495      87120        
    993900   993900         9674.9357      292.07137      9553.037       2936.5651      12489.602      67391.006      87120        
    994000   994000         9675.888       297.47829      9501.4282      2990.9278      12492.356      67274.38       87120        
    994100   994100         9676.7992      301.90021      9439.4898      3035.3869      12474.877      67074.875      87120        
    994200   994200         9677.7299      294.81172      9492.1161      2964.1173      12456.233      67174.426      87120        
    994300   994300         9678.6485      301.41768      9430.4887      3030.5355      12461.024      66970.259      87120        
    994400   994400         9679.5841      300.2195       9441.1165      3018.4886      12459.605      66926.387      87120        
    994500   994500         9680.5263      302.30057      9422.4198      3039.4123      12461.832      66872.263      87120        
    994600   994600         9681.4694      303.88578      9408.2917      3055.3504      12463.642      66893.736      87120        
    994700   994700         9682.413       306.87157      9388.2424      3085.3703      12473.613      66837.506      87120        
    994800   994800         9683.3537      308.02386      9402.3686      3096.9558      12499.324      66869.417      87120        
    994900   994900         9684.2896      301.93564      9465.1502      3035.7431      12500.893      67059.761      87120        
    995000   995000         9685.2142      306.26451      9457.5149      3079.2667      12536.782      67183.491      87120        
    995100   995100         9686.1421      311.63752      9417.4434      3133.2885      12550.732      66983.228      87120        
    995200   995200         9687.0754      312.90471      9420.3672      3146.0292      12566.396      66988.275      87120        
    995300   995300         9688.0106      308.76836      9481.7648      3104.4411      12586.206      67318.892      87120        
    995400   995400         9688.9481      303.97718      9558.3479      3056.2694      12614.617      67576.965      87120        
    995500   995500         9689.8983      308.75901      9500.2767      3104.3471      12604.624      67279.412      87120        
    995600   995600         9690.852       308.30502      9501.9945      3099.7826      12601.777      67226.814      87120        
    995700   995700         9691.8033      308.72958      9502.5977      3104.0512      12606.649      67348.157      87120        
    995800   995800         9692.7539      304.53239      9528.1093      3061.8516      12589.961      67471.294      87120        
    995900   995900         9693.7037      302.40767      9530.8998      3040.4891      12571.389      67390.495      87120        
    996000   996000         9694.6553      304.87539      9475.3424      3065.3001      12540.643      67069.276      87120        
    996100   996100         9695.5818      299.72119      9507.4159      3013.4784      12520.894      67300.297      87120        
    996200   996200         9696.5279      299.06586      9489.4907      3006.8896      12496.38       67260.264      87120        
    996300   996300         9697.4716      305.19291      9427.0659      3068.4926      12495.559      67071.476      87120        
    996400   996400         9698.4209      301.23736      9452.8858      3028.7225      12481.608      67074.326      87120        
    996500   996500         9699.3624      301.858        9420.0354      3034.9625      12454.998      66892.215      87120        
    996600   996600         9700.2934      300.78909      9414.814       3024.2154      12439.029      66964.129      87120        
    996700   996700         9701.2347      301.72144      9404.9475      3033.5895      12438.537      66966.577      87120        
    996800   996800         9702.1606      298.06787      9434.5435      2996.8556      12431.399      66939.535      87120        
    996900   996900         9703.1013      298.94066      9439.9613      3005.6308      12445.592      66976.305      87120        
    997000   997000         9704.0292      302.77621      9415.0286      3044.1945      12459.223      66910.006      87120        
    997100   997100         9704.9655      297.54324      9474.9274      2991.5808      12466.508      67221.255      87120        
    997200   997200         9705.9122      298.34648      9480.8261      2999.6567      12480.483      67293.808      87120        
    997300   997300         9706.8504      296.57362      9505.5653      2981.832       12487.397      67211.003      87120        
    997400   997400         9707.7978      297.55174      9494.88        2991.6662      12486.546      67174.937      87120        
    997500   997500         9708.7362      302.19782      9454.3965      3038.3791      12492.776      67069.355      87120        
    997600   997600         9709.6804      301.65909      9475.5837      3032.9627      12508.546      67179.133      87120        
    997700   997700         9710.6231      298.55862      9508.0209      3001.7897      12509.811      67323.043      87120        
    997800   997800         9711.5476      300.18479      9492.2651      3018.1396      12510.405      67278.057      87120        
    997900   997900         9712.4904      298.2555       9525.9498      2998.742       12524.692      67415.582      87120        
    998000   998000         9713.434       300.42689      9491.2761      3020.5737      12511.85       67260.698      87120        
    998100   998100         9714.3531      299.12977      9504.7747      3007.5322      12512.307      67355.638      87120        
    998200   998200         9715.2969      301.59696      9483.4599      3032.338       12515.798      67338.453      87120        
    998300   998300         9716.2205      298.23966      9498.4598      2998.5828      12497.043      67305.472      87120        
    998400   998400         9717.1597      297.3074       9501.2709      2989.2095      12490.48       67188.554      87120        
    998500   998500         9718.1026      292.95786      9521.7751      2945.4781      12467.253      67369.719      87120        
    998600   998600         9719.0233      291.00183      9504.2661      2925.8116      12430.078      67253.553      87120        
    998700   998700         9719.96        290.84679      9488.8537      2924.2528      12413.107      67155.628      87120        
    998800   998800         9720.8785      294.27535      9460.465       2958.7245      12419.189      67075.145      87120        
    998900   998900         9721.8016      296.01117      9437.6503      2976.1769      12413.827      66907.736      87120        
    999000   999000         9722.7225      298.02547      9423.4006      2996.4292      12419.83       66951.661      87120        
    999100   999100         9723.638       295.24337      9449.0664      2968.4573      12417.524      67003.03       87120        
    999200   999200         9724.5715      296.15689      9440.0564      2977.642       12417.698      67053.701      87120        
    999300   999300         9725.4976      299.03507      9409.3024      3006.58        12415.882      66996.733      87120        
    999400   999400         9726.4342      296.99619      9448.8997      2986.0806      12434.98       67119.632      87120        
    999500   999500         9727.357       300.25096      9432.2865      3018.8049      12451.091      66993.327      87120        
    999600   999600         9728.2853      301.60825      9430.2205      3032.4515      12462.672      66895.818      87120        
    999700   999700         9729.2272      300.62062      9483.8564      3022.5216      12506.378      67173.507      87120        
    999800   999800         9730.1499      303.76122      9485.3182      3054.098       12539.416      67329.055      87120        
    999900   999900         9731.0705      305.76164      9481.8546      3074.2108      12556.065      67388.113      87120        
   1000000   1000000        9732.0068      305.34144      9485.8068      3069.9859      12555.793      67243.807      87120        
Loop time of 9732.01 on 8 procs for 1000000 steps with 4369 atoms

Performance: 8.878 ns/day, 2.703 hours/ns, 102.754 timesteps/s, 448.931 katom-step/s
99.0% CPU use with 8 MPI tasks x no OpenMP threads

MPI task timing breakdown:
Section |  min time  |  avg time  |  max time  |%varavg| %total
---------------------------------------------------------------
Pair    | 373.29     | 2532.2     | 8041       |6271.5 | 26.02
Bond    | 4.9011     | 35.006     | 47.361     | 290.7 |  0.36
Neigh   | 1148.9     | 1154       | 1159       |  11.6 | 11.86
Comm    | 256.51     | 5705.2     | 7835.9     |4131.8 | 58.62
Output  | 1.8159     | 1.9235     | 2.1547     |   7.3 |  0.02
Modify  | 238.82     | 265.51     | 290.31     | 113.1 |  2.73
Other   |            | 38.12      |            |       |  0.39

Nlocal:        546.125 ave        1348 max         210 min
Histogram: 4 2 0 0 0 0 0 0 0 2
Nghost:        4699.88 ave        6509 max        1318 min
Histogram: 2 0 0 0 0 0 0 2 2 2
Neighs:         182138 ave      572563 max       29907 min
Histogram: 4 2 0 0 0 0 0 0 0 2

Total # of neighbors = 1457105
Ave neighs/atom = 333.50996
Ave special neighs/atom = 6.3401236
Neighbor list builds = 81449
Dangerous builds = 0
unfix                  mynvt


write_data             nvt_2ns.data
System init for write_data ...
Generated 21 of 21 mixed pair_coeff terms from arithmetic mixing rule
WARNING: Dihedrals are defined but no dihedral style is set (../force.cpp:207)
WARNING: Likewise 1-4 special neighbor interactions != 1.0 (../force.cpp:209)
WARNING: Impropers are defined but no improper style is set (../force.cpp:212)
Total wall time: 2:42:12
