LAMMPS data file via write_data, version 29 Aug 2024, timestep = 1000000, units = real

4369 atoms
7 atom types
3937 bonds
5 bond types
4687 angles
5 angle types
6951 dihedrals
1 dihedral types
1152 impropers
1 improper types

-0.1495 32.8505 xlo xhi
-0.193001 32.806999 ylo yhi
-38.75 41.25 zlo zhi

Masses

1 12.0107
2 12.0107
3 12.0107
4 12.0107
5 1.0079
6 1.0079
7 15.9994

Pair Coeffs # lj/cut

1 0.0859 3.3997
2 0.0659 3.5
3 0.0859 3.3997
4 0.0859 3.3997
5 0.0299 2.5
6 0 1
7 0.1521 3.1507

Bond Coeffs # harmonic

1 938 1.42
2 661.2 1.1
3 938 1.42
4 938 1.42
5 450 0.9572

Angle Coeffs # harmonic

1 126 120
2 126 120
3 126 120
4 78.8 109.5
5 55 104.52

Atoms # full

3484 1 4 0 1.4662438639489714 1.1598215530149116 -30 0 0 0
3487 4 4 0 2.10567871796059 3.9562332410045458 -30 0 0 0
3488 5 4 0 3.9559110016966255 0.9972305941361889 -30 0 0 0
3489 6 4 0 2.7988445261044053 1.726351251472475 -30 0 0 0
3490 7 4 0 3.0995472904636587 3.12208121898936 -30 0 0 0
3491 8 4 0 4.2710583552577255 3.688150066481936 -30 0 0 0
3492 9 4 0 6.383880779665239 0.9681414571850151 -30 0 0 0
3493 10 4 0 5.19565144509801 1.6117459909923613 -30 0 0 0
3494 11 4 0 5.35621748579497 2.9583925125345334 -30 0 0 0
3540 57 4 0 2.0325926943215684 5.269961803738336 -30 0 0 0
3544 61 4 0 4.3352254361734905 5.04673350661172 -30 0 0 0
3545 62 4 0 3.2330028407295406 5.787214750438845 -30 0 0 0
3549 66 4 0 5.494868607611673 5.666187505053299 -30 0 0 0
3485 2 4 0 0.4939641250456278 2.1860129838198907 -30 0 0 0
3486 3 4 0 1.5329443159665688 2.8565439668778128 -30 0 0 0
3541 58 4 0 0.955985902046392 6.019507866129903 -30 0 0 0
3546 63 4 0 3.3228592592691166 7.110844750914757 -30 0 0 0
3550 67 4 0 5.562420532827728 7.003610278956654 -30 0 0 0
3542 59 4 0 1.0757337523276294 7.346610635960402 -30 0 0 0
3543 60 4 0 2.2428499221075753 7.845397214736968 -30 0 0 0
3547 64 4 0 4.461962554510736 7.720951216211486 -30 0 0 0
2005 1063 7 -0.834 1.7425761614850157 4.846823206664312 -26.859058321045847 2 -32 0
2006 1063 6 0.417 2.387331016833635 5.401919477878494 -26.42043412533376 2 -32 0
2007 1063 6 0.417 1.9727719337506697 4.898633245213149 -27.78672068783212 2 -32 0
635 606 6 0.417 3.90010870990025 -0.09192419908015476 -26.944381865684242 4 8 0
2065 1083 7 -0.834 6.850183676153817 4.537826071387926 -26.939219321403364 11 4 0
2066 1083 6 0.417 7.173146791771583 5.3320439115453775 -27.364830290730517 11 4 0
2067 1083 6 0.417 7.2344402528347445 4.561962241474455 -26.062865412459594 11 4 0
3495 12 4 0 6.531555091215374 3.6055189277715494 -30 0 0 0
3548 65 4 0 6.6029964158403605 4.950016865124977 -30 0 0 0
3496 13 4 0 8.769080579791686 0.9587579162324846 -30 0 0 0
3497 14 4 0 7.592507043582861 1.6042710127942306 -30 0 0 0
3498 15 4 0 7.66887576259495 2.9362916865682323 -30 0 0 0
3499 16 4 0 8.835409456460694 3.600242371114108 -30 0 0 0
3500 17 4 0 11.111650493637732 0.9670290746458915 -30 0 0 0
3501 18 4 0 9.944185212662038 1.6139848096792675 -30 0 0 0
3502 19 4 0 9.981157869660622 2.940450861735177 -30 0 0 0
3503 20 4 0 11.146030662948014 3.60708488325443 -30 0 0 0
3505 22 4 0 12.27817738976302 1.6250329850781216 -30 0 0 0
3506 23 4 0 12.29622772674577 2.9505427928656274 -30 0 0 0
3552 69 4 0 8.884550588348521 4.930919483489419 -30 0 0 0
3553 70 4 0 7.756399173791836 5.6094143641334195 -30 0 0 0
3556 73 4 0 11.176336476284376 4.93700996094294 -30 0 0 0
3557 74 4 0 10.03899630959144 5.603523807596841 -30 0 0 0
3561 78 4 0 12.327488245211448 5.6089699027890925 -30 0 0 0
3554 71 4 0 7.808810256321476 6.9459300777703 -30 0 0 0
3558 75 4 0 10.074401635629762 6.935212436095849 -30 0 0 0
3562 79 4 0 12.351969842675741 6.943130706508939 -30 0 0 0
3551 68 4 0 6.696898482632037 7.648161213263696 -30 0 0 0
3555 72 4 0 8.950192570783575 7.6188335676458205 -30 0 0 0
3559 76 4 0 11.215793395080919 7.610302646015655 -30 0 0 0
783 655 6 0.417 8.294524292054502 7.937920259878 -26.696999439531176 -9 -7 0
3504 21 4 0 13.435776430308092 0.9667188405955208 -30 0 0 0
3507 24 4 0 13.449183041264426 3.6172721305455964 -30 0 0 0
3508 25 4 0 15.739543724263632 0.9672558059949228 -30 0 0 0
3509 26 4 0 14.58943521813531 1.6316335285969052 -30 0 0 0
3510 27 4 0 14.597685488843357 2.9596359523390143 -30 0 0 0
3511 28 4 0 15.748322481564093 3.631068796812104 -30 0 0 0
3512 29 4 0 18.0342740506827 0.96993549795506 -30 0 0 0
3513 30 4 0 16.88812911262405 1.6374767661433514 -30 0 0 0
3514 31 4 0 16.897466088741655 2.9678400932510747 -30 0 0 0
3515 32 4 0 18.045077188405934 3.639755529517246 -30 0 0 0
3517 34 4 0 19.177546669352953 1.6444164273709552 -30 0 0 0
3518 35 4 0 19.183621134336153 2.973128876524559 -30 0 0 0
3560 77 4 0 13.471264245888499 4.946918861063054 -30 0 0 0
3564 81 4 0 15.767045759861057 4.960374227242724 -30 0 0 0
3565 82 4 0 14.621806393434039 5.623319926209802 -30 0 0 0
3568 85 4 0 18.051662287037622 4.96935407905644 -30 0 0 0
3569 86 4 0 16.909565487184413 5.632726323713768 -30 0 0 0
3573 90 4 0 19.200343816901192 5.640984264336308 -30 0 0 0
3566 83 4 0 14.636518020648278 6.954549306040028 -30 0 0 0
3570 87 4 0 16.925247833059345 6.960514861671488 -30 0 0 0
3574 91 4 0 19.209474549527346 6.970983125028699 -30 0 0 0
3563 80 4 0 13.497882623126847 7.6222600915463845 -30 0 0 0
3567 84 4 0 15.779777691234392 7.626919102884006 -30 0 0 0
3571 88 4 0 18.06894539552875 7.634321610694575 -30 0 0 0
85 115 7 -0.834 16.034552206175146 5.965641118549232 -26.167510169035186 0 -3 0
86 115 6 0.417 16.35436309162248 6.8677327060002336 -26.153959621851126 0 -3 0
87 115 6 0.417 16.14653624485889 5.684935318819144 -27.075747849619354 0 -3 0
3516 33 4 0 20.315977684055234 0.9703883473042789 -30 0 0 0
3519 36 4 0 20.326107656745705 3.644990566114006 -30 0 0 0
3520 37 4 0 22.595360351339707 0.9733910991141765 -30 0 0 0
3521 38 4 0 21.45661744828871 1.6455086378018593 -30 0 0 0
3522 39 4 0 21.465279740172893 2.9808559091637057 -30 0 0 0
3523 40 4 0 22.61742599319897 3.6473672785689817 -30 0 0 0
3524 41 4 0 24.85099354204272 0.970004078843895 -30 0 0 0
3525 42 4 0 23.73241571149388 1.6497260093892512 -30 0 0 0
3526 43 4 0 23.74855749269126 2.983270646352393 -30 0 0 0
3527 44 4 0 24.890235237744395 3.642452382709347 -30 0 0 0
3572 89 4 0 20.341794698215747 4.9749385862344315 -30 0 0 0
3576 93 4 0 22.63404933966245 4.983204516022743 -30 0 0 0
3577 94 4 0 21.494269957958245 5.64296089187308 -30 0 0 0
3580 97 4 0 24.930750526092417 4.979863323105748 -30 0 0 0
3581 98 4 0 23.791567636664603 5.638293844941616 -30 0 0 0
3529 46 4 0 25.980547586068088 1.6443160406617126 -30 0 0 0
3530 47 4 0 25.999728531017656 2.9880948490212766 -30 0 0 0
3585 102 4 0 26.1012331901147 5.617207899614291 -30 0 0 0
3578 95 4 0 21.50174325158022 6.974255633425955 -30 0 0 0
3582 99 4 0 23.79972822300717 6.9718169531223655 -30 0 0 0
3586 103 4 0 26.108196814018754 6.957135886594386 -30 0 0 0
3575 92 4 0 20.357815328134592 7.64086151336961 -30 0 0 0
3579 96 4 0 22.658137533677117 7.634060133832888 -30 0 0 0
3583 100 4 0 24.958235157728925 7.618503511725669 -30 0 0 0
1109 764 6 0.417 25.47522227308405 0.4793613976250497 -25.43817960413503 0 2 0
3536 53 4 0 31.631578594108415 0.9226205786644913 -30 0 0 0
3539 56 4 0 31.067855863088752 3.955723020401565 -30 0 0 0
3592 109 4 0 32.03089004301261 4.774237119387129 -30 0 0 0
3528 45 4 0 27.110706199756628 0.9675837016159748 -30 0 0 0
3531 48 4 0 27.149739690628515 3.6302962636758886 -30 0 0 0
3532 49 4 0 29.380535708060673 0.9461904265515652 -30 0 0 0
3533 50 4 0 28.245790822340524 1.6118747229514159 -30 0 0 0
3534 51 4 0 28.259335299432355 2.9471476804833303 -30 0 0 0
3535 52 4 0 29.39689552552711 3.5353065147920573 -30 0 0 0
3537 54 4 0 30.529379531820215 1.5676764524127433 -30 0 0 0
3538 55 4 0 30.477392747042224 2.846628615712464 -30 0 0 0
3584 101 4 0 27.24232608353066 4.977790040486028 -30 0 0 0
3588 105 4 0 29.60973805851367 4.90905502705612 -30 0 0 0
3589 106 4 0 28.44151695435827 5.576328725744758 -30 0 0 0
3593 110 4 0 30.854552770049033 5.539200075361055 -30 0 0 0
3590 107 4 0 28.419067283895263 6.9297340643116 -30 0 0 0
3594 111 4 0 30.73613754400334 6.899892412122825 -30 0 0 0
3595 112 4 0 31.802389085272544 7.636539302859066 -30 0 0 0
3587 104 4 0 27.264644818862994 7.59079871290596 -30 0 0 0
3591 108 4 0 29.569319372474204 7.556826638251734 -30 0 0 0
3596 113 4 0 2.2172411704982093 9.13327262970202 -30 0 0 0
3599 116 4 0 2.16551073444884 11.704513893599977 -30 0 0 0
3600 117 4 0 4.473425750268014 9.050444954771262 -30 0 0 0
3601 118 4 0 3.3482264963336124 9.747788435835979 -30 0 0 0
3602 119 4 0 3.3201264471353698 11.054949211764285 -30 0 0 0
3603 120 4 0 4.45442758238737 11.699004386871422 -30 0 0 0
3605 122 4 0 5.600670151163034 9.689625273626586 -30 0 0 0
3606 123 4 0 5.5886852561452125 11.01494624028986 -30 0 0 0
3597 114 4 0 1.0322710017651404 9.718703601081947 -30 0 0 0
3598 115 4 0 1.0169776228113638 11.05992072903661 -30 0 0 0
3652 169 4 0 2.146342768893931 13.015938649458672 -30 0 0 0
3656 173 4 0 4.43419557194085 13.018786347717253 -30 0 0 0
3655 172 4 0 2.125225200634163 15.647533162218453 -30 0 0 0
3657 174 4 0 3.2852296947971458 13.672869367440203 -30 0 0 0
3658 175 4 0 3.27193382605573 14.98993123413594 -30 0 0 0
3659 176 4 0 4.416909681922073 15.646983871508379 -30 0 0 0
3661 178 4 0 5.57246321584798 13.6686922797557 -30 0 0 0
3662 179 4 0 5.559664643412988 14.984610860805837 -30 0 0 0
3653 170 4 0 0.9879043299855309 13.646625731636757 -30 0 0 0
3654 171 4 0 0.9785746747008642 14.991391250196557 -30 0 0 0
2419 1201 7 -0.834 4.203848373616828 14.237294959190796 -27.071974390584966 0 22 0
2420 1201 6 0.417 4.649473983512934 14.179422951689022 -27.917137454506847 0 22 0
62 88 6 0.417 2.3501026648639773 15.109952020199476 -25.656582766624094 -5 6 0
2421 1201 6 0.417 4.5601373555239455 13.5094871762057 -26.5624786634384 0 22 0
3604 121 4 0 6.716767668999207 8.983527663030149 -30 0 0 0
3607 124 4 0 6.723058591139156 11.665445701552768 -30 0 0 0
3660 177 4 0 6.7106464650637365 12.995305379279896 -30 0 0 0
3608 125 4 0 8.969245427463258 8.95444171253616 -30 0 0 0
3609 126 4 0 7.848899754849683 9.644549276332574 -30 0 0 0
3610 127 4 0 7.852765917860348 10.977624196322633 -30 0 0 0
3611 128 4 0 8.985288425452472 11.643625763258976 -30 0 0 0
3612 129 4 0 11.236730923571296 8.94720285620993 -30 0 0 0
3613 130 4 0 10.104297294313072 9.626082733610872 -30 0 0 0
3614 131 4 0 10.112152444448139 10.960760760217308 -30 0 0 0
3615 132 4 0 11.249323113794222 11.634064010504307 -30 0 0 0
3617 134 4 0 12.380647039954606 9.622838269588234 -30 0 0 0
3618 135 4 0 12.384383099078292 10.956565680707877 -30 0 0 0
3664 181 4 0 8.978709261669268 12.972324924075805 -30 0 0 0
3668 185 4 0 11.250794121709921 12.964197649053432 -30 0 0 0
3663 180 4 0 6.702815438520124 15.643241856231377 -30 0 0 0
3665 182 4 0 7.849018900413803 13.653713825282331 -30 0 0 0
3666 183 4 0 7.841605751044478 14.974491709749394 -30 0 0 0
3667 184 4 0 8.975952363810963 15.642665678334716 -30 0 0 0
3669 186 4 0 10.116527652674408 13.639621082629182 -30 0 0 0
3670 187 4 0 10.115394892190373 14.971239531433906 -30 0 0 0
3671 188 4 0 11.252652562375811 15.642688470206982 -30 0 0 0
3673 190 4 0 12.384755976537978 13.638567672856013 -30 0 0 0
3674 191 4 0 12.38578454522913 14.968916578132092 -30 0 0 0
781 655 7 -0.834 7.561654222629426 8.55189346968129 -26.743584881852204 -9 -7 0
782 655 6 0.417 7.810142331949898 9.17053244510475 -27.430440996200478 -9 -7 0
3616 133 4 0 13.513406488955479 8.952709911839221 -30 0 0 0
3619 136 4 0 13.521937849146218 11.628943084696145 -30 0 0 0
3620 137 4 0 15.785172169196363 8.958040069270218 -30 0 0 0
3621 138 4 0 14.647494436152359 9.62795954508098 -30 0 0 0
3622 139 4 0 14.656194885909658 10.956938774443833 -30 0 0 0
3623 140 4 0 15.79512641902377 11.63436432518559 -30 0 0 0
3624 141 4 0 18.083288149871077 8.963142411853578 -30 0 0 0
3625 142 4 0 16.93338913609908 9.632486541212389 -30 0 0 0
3626 143 4 0 16.938094549698935 10.967210236748473 -30 0 0 0
3627 144 4 0 18.082932598744936 11.636441061003694 -30 0 0 0
3629 146 4 0 19.223101154347077 9.636071655319071 -30 0 0 0
3630 147 4 0 19.22685022338998 10.962538776431188 -30 0 0 0
3672 189 4 0 13.523319439980575 12.961618842361677 -30 0 0 0
3676 193 4 0 15.801629384942926 12.966047105345275 -30 0 0 0
3680 197 4 0 18.080115152888386 12.967534856647452 -30 0 0 0
3675 192 4 0 13.521360318743257 15.641381474529238 -30 0 0 0
3677 194 4 0 14.663499565145317 13.634789773696872 -30 0 0 0
3678 195 4 0 14.663306197262596 14.968160614084068 -30 0 0 0
3679 196 4 0 15.80463446763842 15.641768406207376 -30 0 0 0
3681 198 4 0 16.94061860967643 13.6399964732008 -30 0 0 0
3682 199 4 0 16.940424974281253 14.969469669246354 -30 0 0 0
3683 200 4 0 18.080446855213207 15.640049829884692 -30 0 0 0
3685 202 4 0 19.22416589710115 13.637082308103864 -30 0 0 0
3686 203 4 0 19.224795313757234 14.970923678222409 -30 0 0 0
804 662 6 0.417 18.89293722298811 14.372285225072488 -26.672336685212922 -6 -17 0
802 662 7 -0.834 19.592963335000654 13.721615155487015 -26.619197691953975 -6 -17 0
3628 145 4 0 20.361022112906326 8.970394068596743 -30 0 0 0
3631 148 4 0 20.365901083326236 11.63618290737286 -30 0 0 0
3632 149 4 0 22.6543179249847 8.966137855742218 -30 0 0 0
3633 150 4 0 21.508642783734288 9.633825920093425 -30 0 0 0
3634 151 4 0 21.50855683073391 10.965089602587339 -30 0 0 0
3635 152 4 0 22.655761366631054 11.630018025828027 -30 0 0 0
3636 153 4 0 24.949626294406478 8.953024131219381 -30 0 0 0
3637 154 4 0 23.80795270325695 9.625421160320073 -30 0 0 0
3638 155 4 0 23.797988008212357 10.957721203319927 -30 0 0 0
3639 156 4 0 24.94267954554567 11.619234392351924 -30 0 0 0
3684 201 4 0 20.368107225876138 12.964166106672142 -30 0 0 0
3688 205 4 0 22.65198973189878 12.962626167437797 -30 0 0 0
3692 209 4 0 24.93195413396701 12.954896924094177 -30 0 0 0
3641 158 4 0 26.101276971267925 9.606131758415135 -30 0 0 0
3642 159 4 0 26.083922579108066 10.94351192033973 -30 0 0 0
3687 204 4 0 20.366540069123076 15.641305936142539 -30 0 0 0
3689 206 4 0 21.507645699529874 13.637438255027838 -30 0 0 0
3690 207 4 0 21.506640131737953 14.96856545336583 -30 0 0 0
3691 208 4 0 22.64692620405084 15.640276289215704 -30 0 0 0
3693 210 4 0 23.79223793537089 13.631629529948475 -30 0 0 0
3694 211 4 0 23.789244154909127 14.963715908173915 -30 0 0 0
3695 212 4 0 24.926064473249948 15.641441600425239 -30 0 0 0
3697 214 4 0 26.07072628006537 13.62491460288023 -30 0 0 0
3698 215 4 0 26.06474825727228 14.961705632838356 -30 0 0 0
267 483 6 0.417 22.70232119408254 15.844440836054913 -26.147203376210673 -8 -5 0
265 483 7 -0.834 22.534183762840364 15.751825570461282 -27.084958181617637 -8 -5 0
803 662 6 0.417 20.257603082319996 14.033465574054432 -27.23339241907503 -6 -17 0
266 483 6 0.417 23.288405607169008 16.164369544220754 -27.505896092473723 -8 -5 0
3648 165 4 0 31.804359312732103 8.985456409893704 -30 0 0 0
3651 168 4 0 31.7626982927278 11.623108235654295 -30 0 0 0
3704 221 4 0 31.758976066593995 12.972087987436607 -30 0 0 0
3640 157 4 0 27.248742886081732 8.930254697586001 -30 0 0 0
3643 160 4 0 27.22283000812201 11.610802182824393 -30 0 0 0
3644 161 4 0 29.53739508509663 8.913060483215324 -30 0 0 0
3645 162 4 0 28.387442215416158 9.589174251184904 -30 0 0 0
3646 163 4 0 28.3631029560877 10.932244480295031 -30 0 0 0
3647 164 4 0 29.49080400424505 11.61734876759236 -30 0 0 0
3649 166 4 0 30.64970302933736 9.619199078615646 -30 0 0 0
3650 167 4 0 30.629830811513163 10.950812301763065 -30 0 0 0
3696 213 4 0 27.209381323290973 12.948015015429393 -30 0 0 0
3700 217 4 0 29.481439483978395 12.953132636025085 -30 0 0 0
3707 224 4 0 31.74433766187754 15.633400554662867 -30 0 0 0
3699 216 4 0 27.20002170232979 15.641566125498782 -30 0 0 0
3701 218 4 0 28.34189678012104 13.626555224686784 -30 0 0 0
3702 219 4 0 28.33604592944784 14.962808679551383 -30 0 0 0
3703 220 4 0 29.471333913189262 15.641065366615479 -30 0 0 0
3705 222 4 0 30.614806139968024 13.63475193941019 -30 0 0 0
3706 223 4 0 30.607418160233795 14.96448416709877 -30 0 0 0
2068 1084 7 -0.834 1.870294591537514 7.225042870151638 -19.29783490468465 3 -6 0
2070 1084 6 0.417 1.6562898515900002 7.9368801030329506 -19.900928237608998 3 -6 0
2069 1084 6 0.417 1.2636706011135759 6.52231930966154 -19.531113266004574 3 -6 0
2965 1383 7 -0.834 0.1153852972494772 0.44979466436782833 -19.472325959130693 2 5 0
1716 966 6 0.417 10.102287570431628 0.8244449947189859 -20.196077682703667 -8 5 0
1715 966 6 0.417 11.487658775344084 1.114993736959409 -19.65921338162618 -8 5 0
1714 966 7 -0.834 10.730457273166147 0.5437307391393614 -19.530619780076382 -8 5 0
1208 797 6 0.417 13.351289238114555 5.535138318982428 -23.747820675512603 -18 -1 0
1207 797 7 -0.834 13.61510034394823 6.452622125436621 -23.678113745283834 -18 -1 0
1209 797 6 0.417 14.564910207755492 6.43885042894473 -23.79602650497731 -18 -1 0
1108 764 7 -0.834 25.76634813763586 1.138804349570157 -24.808407678163793 0 2 0
984 722 6 0.417 30.678088203411978 2.65963005023549 -24.818374523013382 -2 8 0
982 722 7 -0.834 31.213560803063782 3.4285292967379406 -25.01406549441843 -2 8 0
983 722 6 0.417 30.792434498655087 4.142422925586661 -24.535274882857962 -2 8 0
1110 764 6 0.417 26.649954280599943 1.370322395562474 -25.09453951915122 0 2 0
417 533 6 0.417 31.95527745588379 7.3483008801089005 -24.87773164933056 2 -2 0
415 533 7 -0.834 32.27831549115155 6.539952665504713 -25.275791239641734 2 -2 0
416 533 6 0.417 32.688930733006394 6.06429594729786 -24.55372638373488 2 -2 0
2967 1383 6 0.417 32.38495265281467 -0.16880564429312075 -19.478137957790306 1 5 0
78 111 6 0.417 3.300064072985669 9.053411055753005 -22.295191590448354 12 16 0
61 88 7 -0.834 2.65682425828143 14.846090119400658 -24.789097543392312 -5 6 0
530 571 6 0.417 3.4345660217445007 10.896465269149934 -19.073788550787896 -3 -12 0
77 111 6 0.417 3.418137111022145 8.210150841958418 -21.04344633423279 12 16 0
76 111 7 -0.834 3.826391190844921 8.360674771611372 -21.896032401001428 12 16 0
63 88 6 0.417 2.612343094221953 15.645993459190066 -24.265257932797994 -5 6 0
2883 1355 6 0.417 3.9873972871108863 15.899004540178929 -22.793046503117314 9 -7 0
84 113 6 0.417 12.185175612319508 15.31412721066562 -22.755527018538917 -9 -12 0
83 113 6 0.417 11.805290014057263 13.890380665189582 -23.102698379137617 -9 -12 0
2383 1189 7 -0.834 11.932682841604414 12.08990195935106 -24.02389458725104 -5 -18 0
2385 1189 6 0.417 12.076382266036392 13.035659353589017 -23.99034946274024 -5 -18 0
2384 1189 6 0.417 11.001465655082962 11.98164680655271 -23.83064026637062 -5 -18 0
82 113 7 -0.834 11.927588372957675 14.75709589911387 -23.49009954415176 -9 -12 0
2878 1354 7 -0.834 19.97461160824157 9.878881573190542 -20.872261043943844 -2 0 0
533 572 6 0.417 24.35905875652356 13.151817923812693 -23.69739086740789 -11 0 0
2879 1354 6 0.417 19.92515824312921 9.30570848921818 -21.637283150367654 -2 0 0
2880 1354 6 0.417 20.823510675520094 10.313775174733177 -20.952695930156583 -2 0 0
1262 815 6 0.417 26.187279273327302 11.903268304373627 -23.32302694878052 9 1 0
532 572 7 -0.834 23.54823239904048 12.66762276449707 -23.853427858448832 -11 0 0
534 572 6 0.417 23.04198057055425 13.229906517950234 -24.439753628898142 -11 0 0
1261 815 7 -0.834 27.02625898376381 11.57200954414772 -23.64335886136027 9 1 0
1263 815 6 0.417 26.794585077411046 10.997245469137956 -24.372882885665387 9 1 0
1921 1035 7 -0.834 0.883034932996584 7.732414335306024 -12.334901765790956 -6 6 0
2188 1124 7 -0.834 2.3555686573460703 4.529092184087023 -14.043725645216275 2 3 0
2189 1124 6 0.417 1.5316731468350369 4.054024736333969 -14.152072141483474 2 3 0
1923 1035 6 0.417 0.06271015229266132 7.792154539700163 -12.824524276892367 -6 6 0
1163 782 6 0.417 4.6786049596088075 7.163061799076081 -14.337285231586547 -14 11 0
2190 1124 6 0.417 2.7721641933000916 4.117470720078277 -13.28659434499166 2 3 0
1164 782 6 0.417 5.666186245149978 6.151709948260085 -13.79530189514949 -14 11 0
1162 782 7 -0.834 5.468091196628767 6.67524847542014 -14.571766740068453 -14 11 0
2966 1383 6 0.417 0.6203438012756894 0.21757397120008837 -18.693017088122417 2 5 0
867 683 6 0.417 9.025882515367801 5.499093327164446 -12.51725387348493 -10 -13 0
866 683 6 0.417 8.655266360680299 6.1130298562781995 -13.850528354011482 -10 -13 0
865 683 7 -0.834 8.87813627501902 6.341036604560243 -12.947990938591294 -10 -13 0
142 212 7 -0.834 20.670035998889112 6.6378720619791505 -16.341214042244935 6 -7 0
143 212 6 0.417 19.996232718119497 7.300900738490343 -16.19083465057439 6 -7 0
144 212 6 0.417 20.471611792850254 5.946514129238075 -15.709641488026097 6 -7 0
2278 1154 7 -0.834 30.125104188748033 2.3855589897826417 -13.676197142263655 6 -11 0
2280 1154 6 0.417 29.39653428454767 2.619116668229811 -13.100985385365014 6 -11 0
2279 1154 6 0.417 30.874481790413277 2.8630192731303965 -13.320252269378392 6 -11 0
2347 1177 7 -0.834 27.197454529149645 3.1903929497654504 -15.173639708294049 4 22 0
2348 1177 6 0.417 27.740633845663975 3.683346909662497 -14.558672641778877 4 22 0
2349 1177 6 0.417 26.303182406527753 3.3118136421674857 -14.85463148464378 4 22 0
2042 1075 6 0.417 31.670510201413105 0.669476812390697 -14.863764012081027 -21 -6 0
2041 1075 7 -0.834 31.085827257398932 -0.05610156936245441 -15.082656152316206 -21 -6 0
260 481 6 0.417 26.989896254018156 0.039718352824522185 -12.939396862887058 -6 -1 0
1304 829 6 0.417 4.991412825819996 11.604946034930462 -17.192924135011012 -16 -13 0
529 571 7 -0.834 2.558081104675795 10.988961978394606 -18.700357932263415 -3 -12 0
2257 1147 7 -0.834 6.378191288208863 16.115904646098688 -15.306217596767535 8 -13 0
1303 829 7 -0.834 4.344802197585233 12.251012818233432 -16.908803977163597 -16 -13 0
1305 829 6 0.417 3.5752940045396624 11.732786295086772 -16.67315535396082 -16 -13 0
2747 1310 6 0.417 5.807553863162871 11.865437127819359 -12.677095696848177 -13 16 0
2499 1227 6 0.417 0.1321968605366238 13.479036802064734 -14.350696965257763 -1 16 0
2258 1147 6 0.417 5.608160952828592 15.582826402827866 -15.50398713634056 8 -13 0
531 571 6 0.417 2.2027955950593805 10.100141301748106 -18.698948580172498 -3 -12 0
2259 1147 6 0.417 6.914795877040582 15.561525368009114 -14.739692240416305 8 -13 0
2746 1310 7 -0.834 6.527879873779017 11.4164459199772 -13.119553914568925 -13 16 0
2748 1310 6 0.417 7.067515090770272 12.122018897080938 -13.476194809811792 -13 16 0
1180 788 7 -0.834 16.999583794016406 10.057163434571029 -17.459309645780603 -2 2 0
2199 1127 6 0.417 14.889748074792566 12.588491508743944 -12.336287890662181 4 -13 0
2197 1127 7 -0.834 15.17548106238071 11.83343785070218 -12.850566517670309 4 -13 0
1182 788 6 0.417 17.190085583985244 10.932758187725462 -17.122746486261278 -2 2 0
2198 1127 6 0.417 14.460586859040498 11.679305899786604 -13.468143649119611 4 -13 0
2556 1246 6 0.417 15.277990029817746 13.851852902536182 -13.349690367411597 -11 -25 0
2555 1246 6 0.417 14.64884908578731 14.763675568400497 -12.31786850409439 -11 -25 0
2554 1246 7 -0.834 15.168046069592423 14.775040699309233 -13.12194386862683 -11 -25 0
1181 788 6 0.417 17.43997916166385 9.46475929562835 -16.849931927437282 -2 2 0
2287 1157 7 -0.834 23.027929132511964 13.571721955903865 -17.140753061949916 -2 -5 0
2288 1157 6 0.417 23.531871102718515 12.878916594826828 -16.71379268494728 -2 -5 0
2289 1157 6 0.417 22.119723711203733 13.392890529810622 -16.897002952900184 -2 -5 0
2498 1227 6 0.417 32.60310297775641 13.933718307166671 -15.694281594570626 -2 16 0
12 21 6 0.417 29.935758065723228 13.555067971151743 -12.474916870351864 -6 3 0
2497 1227 7 -0.834 32.337553554790716 13.498847724746799 -14.883971182635259 -2 16 0
35 53 6 0.417 0.20043612027013324 5.461055480166663 -7.793699029383282 -26 -4 0
34 53 7 -0.834 -0.08612358846135357 5.14240451382282 -6.937791889002552 -26 -4 0
2626 1270 7 -0.834 18.45310349043464 0.5307856910313806 -9.892546110981309 2 4 0
2628 1270 6 0.417 17.872690146531767 0.668965201729861 -9.144041852037265 2 4 0
2627 1270 6 0.417 18.60502562685802 1.40822344310515 -10.24362231863472 2 4 0
924 702 6 0.417 24.470130607657524 3.0714635221102964 -11.295721167849702 -5 5 0
923 702 6 0.417 23.595808462911066 2.038002667406963 -10.617919832076751 -5 5 0
922 702 7 -0.834 24.304442330625392 2.1295989824180217 -11.254849986859453 -5 5 0
1277 820 6 0.417 25.41566971253385 1.0532484059724496 -7.5817055534263 0 -3 0
1278 820 6 0.417 26.21650530582927 2.1762069625934295 -6.9575888534042125 0 -3 0
1276 820 7 -0.834 25.45608913218833 2.0071845895773475 -7.513853657576909 0 -3 0
222 468 6 0.417 22.72583531794095 3.852559157645256 -7.463975471001787 -3 -10 0
220 468 7 -0.834 23.290722179468148 4.3332142767344815 -6.858909084235087 -3 -10 0
221 468 6 0.417 24.180319416469725 4.102145450997508 -7.126221270228758 -3 -10 0
36 53 6 0.417 32.487647640064225 5.8968936316855896 -6.531212194171052 -27 -4 0
510 564 6 0.417 29.090927675661813 7.873905150519564 -7.497361013241049 19 6 0
508 564 7 -0.834 29.14221084731765 8.030946572011821 -8.440197126256876 19 6 0
509 564 6 0.417 29.64306351466052 7.289434430258691 -8.780106217697789 19 6 0
1782 988 6 0.417 5.977287327858828 9.725432737717027 -5.6857987997839 -7 8 0
1922 1035 6 0.417 0.6768754815591985 8.100002221461677 -11.475477961445439 -6 6 0
1801 995 7 -0.834 2.9322776634168597 14.637033416576484 -6.946473227829549 -3 -8 0
1802 995 6 0.417 2.2219497567803868 14.163707547137369 -7.379634561295563 -3 -8 0
1803 995 6 0.417 3.245941141339721 15.255475868251725 -7.606303514595202 -3 -8 0
169 451 7 -0.834 1.3810788470264703 9.606293902958619 -10.334528775501331 -2 -7 0
171 451 6 0.417 1.6011366776411469 10.344598340021227 -10.902607074792552 -2 -7 0
170 451 6 0.417 0.8153122645786076 9.051007999161856 -10.870996469968242 -2 -7 0
915 699 6 0.417 3.408027059158536 12.46695050777121 -10.400943875778857 2 -5 0
913 699 7 -0.834 3.1038396669177337 11.634745455887861 -10.038815962359598 2 -5 0
914 699 6 0.417 2.3478369494903637 11.400741885697556 -10.577271274467112 2 -5 0
92 125 6 0.417 9.658805396625104 15.097991279168257 -10.225240981342685 1 -23 0
91 125 7 -0.834 9.24074067326853 15.841834902511216 -9.791477901973295 1 -23 0
1988 1057 6 0.417 9.329971776692513 10.530086758012581 -9.908176230711419 4 8 0
1987 1057 7 -0.834 9.532584338990393 9.794096456150214 -9.330683113791613 4 8 0
1989 1057 6 0.417 10.45270565799409 9.597351951412609 -9.50646785524051 4 8 0
93 125 6 0.417 8.688537967105793 16.234547489622454 -10.467555541401861 1 -23 0
2582 1255 6 0.417 26.21550315396481 11.332252675430187 -8.619490676302744 2 -11 0
11 21 6 0.417 29.559162844174985 12.16903363617454 -11.996398204981498 -6 3 0
5 7 6 0.417 30.37167660333216 13.603220544055988 -5.930393990679529 -11 9 0
10 21 7 -0.834 30.20391161154357 12.864834474788982 -11.868366575085997 -6 3 0
6 7 6 0.417 30.010610932731588 13.277549919619489 -7.364083462044422 -11 9 0
4 7 7 -0.834 29.72194767867056 13.789091024147142 -6.608285086818073 -11 9 0
2583 1255 6 0.417 27.159606475496307 11.429623195138214 -7.44004876748122 2 -11 0
2581 1255 7 -0.834 27.104174536580246 11.596125962169603 -8.381024859368777 2 -11 0
2841 1341 6 0.417 3.0954046002124382 7.941029948728726 1.2426082954205926 0 1 0
3932 1 1 0 2.2562482334983582 0.9285940018403804 0.8811485719029091 0 0 0
3935 4 1 0 1.5702726925227142 3.295491990474255 -0.46610757480883375 0 0 0
3936 5 1 0 4.303863744937748 0.8221290514667102 -0.4673446590910069 0 0 0
3937 6 1 0 3.0241530004865878 1.3675082188352161 -0.22573597718066937 0 0 0
3938 7 1 0 2.7619251265691056 2.6065302665638814 -0.814259271497904 0 0 0
3939 8 1 0 3.9225233938713213 3.38552544743219 -1.0086275345524736 0 0 0
3941 10 1 0 5.251057608175246 1.3986268047217023 -1.3254864576126264 0 0 0
3942 11 1 0 5.153332886821919 2.789575568078651 -1.3510412563077603 0 0 0
3943 12 1 0 6.276917448410191 3.458327269345303 -0.8582603405521174 0 0 0
3988 57 1 0 1.5276903080147402 4.681114373346804 -0.7326479826000916 0 0 0
3992 61 1 0 3.8947377349366255 4.680613837939717 -0.4634902165345908 0 0 0
3993 62 1 0 2.7557105288384105 5.3503154239062845 -0.8954413404243623 0 0 0
3996 65 1 0 6.216830102448956 4.835483158324282 -0.8878152545595361 0 0 0
3997 66 1 0 5.090522484553793 5.414253464647523 -0.29423864452104337 0 0 0
3933 2 1 0 1.0650127211636007 1.589480450781322 1.2353041441246222 0 0 0
3934 3 1 0 0.8206753119595119 2.857920479551592 0.6627905014474444 0 0 0
3989 58 1 0 0.6020223430010189 5.4056747840332315 0.015613434465128214 0 0 0
3994 63 1 0 2.7920759723720727 6.724197888523808 -1.1808678315002221 0 0 0
3998 67 1 0 5.051275917563195 6.816532845023105 -0.40196951854745094 0 0 0
3990 59 1 0 0.9962135159030117 6.710683948043203 0.34591661439544724 0 0 0
3991 60 1 0 1.6955668776597947 7.415881127177664 -0.6548656937479624 0 0 0
3995 64 1 0 4.035015045808342 7.39596013891025 -1.1820361578759657 0 0 0
3999 68 1 0 6.288207826317665 7.491762154040893 -0.32645932534841293 0 0 0
1221 801 6 0.417 1.6119127013547758 4.877348935794814 -4.479447218984262 -14 -9 0
1219 801 7 -0.834 1.1171572498217184 5.329231826041498 -3.795889789417536 -14 -9 0
1220 801 6 0.417 1.4705947003727233 4.9842448918635505 -2.975952062319258 -14 -9 0
582 588 6 0.417 6.956496732261783 5.237844746009708 -4.478355580411358 -2 8 0
3940 9 1 0 6.577055647560999 0.9394946820975908 -1.1530830674616068 0 0 0
3944 13 1 0 8.365442444786163 0.87825631026549 0.6321023888639044 0 0 0
3945 14 1 0 7.262374436753517 1.4790776945757695 -0.03406631249391488 0 0 0
3946 15 1 0 7.295970612675519 2.864168174119815 -0.09795531263992047 0 0 0
3947 16 1 0 8.559171499865549 3.4158668344271983 -0.3415297988291856 0 0 0
3948 17 1 0 10.848665792245974 0.6561565791955908 0.6027484979157945 0 0 0
3949 18 1 0 9.648001229440462 1.3239022870819324 0.23591848894674428 0 0 0
3950 19 1 0 9.70291107225979 2.586028473526414 -0.38612186766695095 0 0 0
3951 20 1 0 10.945353829103889 3.233435122719617 -0.4251600264675006 0 0 0
3953 22 1 0 12.105690778406998 1.1991170809372689 0.24018509422836062 0 0 0
3954 23 1 0 12.12042105438092 2.457991342144703 -0.3958936957724451 0 0 0
4000 69 1 0 8.597482721980757 4.7009281962400165 -0.9196302617387327 0 0 0