
     Program PWSCF v.7.3.1 starts on  4Nov2024 at 13:51:27 

     This program is part of the open-source Quantum ESPRESSO suite
     for quantum simulation of materials; please cite
         "P. Giannozzi et al., J. Phys.:Condens. Matter 21 395502 (2009);
         "P. Giannozzi et al., J. Phys.:Condens. Matter 29 465901 (2017);
         "P. Giannozzi et al., J. Chem. Phys. 152 154105 (2020);
          URL http://www.quantum-espresso.org", 
     in publications or presentations arising from this work. More details at
     http://www.quantum-espresso.org/quote

     Parallel version (MPI), running on     1 processors

     MPI processes distributed on     1 nodes
     14437 MiB available memory on the printing compute node when the environment starts

     Waiting for input...
     Reading input from standard input

     Current dimensions of program PWSCF are:
     Max number of different atomic species (ntypx) = 10
     Max number of k-points (npk) =  40000
     Max angular momentum in pseudopotentials (lmaxx) =  4

     Subspace diagonalization in iterative solution of the eigenvalue problem:
     a serial algorithm will be used


     G-vector sticks info
     --------------------
     sticks:   dense  smooth     PW     G-vecs:    dense   smooth      PW
     Sum         151     151     55                 1243     1243     283

     Using Slab Decomposition



     bravais-lattice index     =            2
     lattice parameter (alat)  =       7.3700  a.u.
     unit-cell volume          =     100.0789 (a.u.)^3
     number of atoms/cell      =            1
     number of atomic types    =            1
     number of electrons       =        10.00
     number of Kohn-Sham states=           10
     kinetic-energy cutoff     =      20.0000  Ry
     charge density cutoff     =      80.0000  Ry
     scf convergence threshold =      1.0E-08
     mixing beta               =       0.7000
     number of iterations used =            8  plain     mixing
     Exchange-correlation=  SLA  PZ   NOGX NOGC
                           (   1   1   0   0   0   0   0)
     Non magnetic calculation with spin-orbit


     celldm(1)=   7.370000  celldm(2)=   0.000000  celldm(3)=   0.000000
     celldm(4)=   0.000000  celldm(5)=   0.000000  celldm(6)=   0.000000

     crystal axes: (cart. coord. in units of alat)
               a(1) = (  -0.500000   0.000000   0.500000 )  
               a(2) = (   0.000000   0.500000   0.500000 )  
               a(3) = (  -0.500000   0.500000   0.000000 )  

     reciprocal axes: (cart. coord. in units 2 pi/alat)
               b(1) = ( -1.000000 -1.000000  1.000000 )  
               b(2) = (  1.000000  1.000000  1.000000 )  
               b(3) = ( -1.000000  1.000000 -1.000000 )  


     PseudoPot. # 1 for Pt read from file:
     /home/dashlander/Desktop/Sem7/CPD/Assignment_3/pseudo/Pt.rel-pz-n-rrkjus.UPF
     MD5 check sum: 4baafe8ec1942611396c7a5466f52249
     Pseudo is Ultrasoft + core correction, Zval = 10.0
     Generated by new atomic code, or converted to UPF format
     Using radial grid of 1277 points,  6 beta functions with: 
                l(1) =   2
                l(2) =   2
                l(3) =   2
                l(4) =   2
                l(5) =   1
                l(6) =   1
     Q(r) pseudized with 0 coefficients 


     atomic species   valence    mass     pseudopotential
     Pt               10.00   195.08400     Pt( 1.00)

     48 Sym. Ops., with inversion, found



   Cartesian axes

     site n.     atom                  positions (alat units)
         1        Pt     tau(   1) = (   0.0000000   0.0000000   0.0000000  )

     number of k points=     8
                       cart. coord. in units 2pi/alat
        k(    1) = (   0.0000000   0.0000000   0.0000000), wk =   0.0156250
        k(    2) = (  -0.2500000   0.2500000  -0.2500000), wk =   0.1250000
        k(    3) = (   0.5000000  -0.5000000   0.5000000), wk =   0.0625000
        k(    4) = (   0.0000000   0.5000000   0.0000000), wk =   0.0937500
        k(    5) = (   0.7500000  -0.2500000   0.7500000), wk =   0.3750000
        k(    6) = (   0.5000000   0.0000000   0.5000000), wk =   0.1875000
        k(    7) = (   0.0000000  -1.0000000   0.0000000), wk =   0.0468750
        k(    8) = (  -0.5000000  -1.0000000   0.0000000), wk =   0.0937500

     Dense  grid:     1243 G-vectors     FFT dimensions: (  15,  15,  15)

     Estimated max dynamical RAM per process >      10.75 MB

     Check: negative core charge=   -0.000029

     Initial potential from superposition of free atoms

     starting charge       9.9999, renormalised to      10.0000

     negative rho (up, down):  1.043E-04 0.000E+00
     Starting wfcs are   12 randomized atomic wfcs

     total cpu time spent up to now is        0.3 secs

     Self-consistent Calculation

     iteration #  1     ecut=    20.00 Ry     beta= 0.70
     Davidson diagonalization with overlap
     ethr =  1.00E-02,  avg # of iterations =  1.9

     Threshold (ethr) on eigenvalues was too large:
     Diagonalizing with lowered threshold

     Davidson diagonalization with overlap
     ethr =  6.82E-05,  avg # of iterations =  3.8

     negative rho (up, down):  2.005E-04 0.000E+00

     total cpu time spent up to now is        0.4 secs

     total energy              =     -69.42970519 Ry
     estimated scf accuracy    <       0.00092177 Ry

     iteration #  2     ecut=    20.00 Ry     beta= 0.70
     Davidson diagonalization with overlap
     ethr =  9.22E-06,  avg # of iterations =  2.5

     negative rho (up, down):  2.268E-04 0.000E+00

     total cpu time spent up to now is        0.5 secs

     total energy              =     -69.42989319 Ry
     estimated scf accuracy    <       0.00012048 Ry

     iteration #  3     ecut=    20.00 Ry     beta= 0.70
     Davidson diagonalization with overlap
     ethr =  1.20E-06,  avg # of iterations =  3.5

     negative rho (up, down):  2.382E-04 0.000E+00

     total cpu time spent up to now is        0.6 secs

     total energy              =     -69.43780366 Ry
     estimated scf accuracy    <       0.00069664 Ry

     iteration #  4     ecut=    20.00 Ry     beta= 0.70
     Davidson diagonalization with overlap
     ethr =  1.20E-06,  avg # of iterations =  5.4

     negative rho (up, down):  2.394E-04 0.000E+00

     total cpu time spent up to now is        0.6 secs

     total energy              =     -69.44320106 Ry
     estimated scf accuracy    <       0.00731041 Ry

     iteration #  5     ecut=    20.00 Ry     beta= 0.70
     Davidson diagonalization with overlap
     ethr =  1.20E-06,  avg # of iterations =  4.0

     negative rho (up, down):  2.397E-04 0.000E+00

     total cpu time spent up to now is        0.7 secs

     total energy              =     -69.44275273 Ry
     estimated scf accuracy    <       0.00196374 Ry

     iteration #  6     ecut=    20.00 Ry     beta= 0.70
     Davidson diagonalization with overlap
     ethr =  1.20E-06,  avg # of iterations =  2.8

     negative rho (up, down):  2.396E-04 0.000E+00

     total cpu time spent up to now is        0.8 secs

     total energy              =     -69.44276628 Ry
     estimated scf accuracy    <       0.00032653 Ry

     iteration #  7     ecut=    20.00 Ry     beta= 0.70
     Davidson diagonalization with overlap
     ethr =  1.20E-06,  avg # of iterations =  2.1

     negative rho (up, down):  2.397E-04 0.000E+00

     total cpu time spent up to now is        0.8 secs

     total energy              =     -69.44278547 Ry
     estimated scf accuracy    <       0.00004834 Ry

     iteration #  8     ecut=    20.00 Ry     beta= 0.70
     Davidson diagonalization with overlap
     ethr =  4.83E-07,  avg # of iterations =  1.6

     negative rho (up, down):  2.398E-04 0.000E+00

     total cpu time spent up to now is        0.9 secs

     total energy              =     -69.44278218 Ry
     estimated scf accuracy    <       0.00001728 Ry

     iteration #  9     ecut=    20.00 Ry     beta= 0.70
     Davidson diagonalization with overlap
     ethr =  1.73E-07,  avg # of iterations =  3.5

     negative rho (up, down):  2.397E-04 0.000E+00

     total cpu time spent up to now is        0.9 secs

     total energy              =     -69.44278581 Ry
     estimated scf accuracy    <       0.00000149 Ry

     iteration # 10     ecut=    20.00 Ry     beta= 0.70
     Davidson diagonalization with overlap
     ethr =  1.49E-08,  avg # of iterations =  4.8

     negative rho (up, down):  2.397E-04 0.000E+00

     total cpu time spent up to now is        1.0 secs

     total energy              =     -69.44278679 Ry
     estimated scf accuracy    <       0.00000013 Ry

     iteration # 11     ecut=    20.00 Ry     beta= 0.70
     Davidson diagonalization with overlap
     ethr =  1.29E-09,  avg # of iterations =  4.8

     negative rho (up, down):  2.397E-04 0.000E+00

     total cpu time spent up to now is        1.1 secs

     total energy              =     -69.44278691 Ry
     estimated scf accuracy    <       0.00000009 Ry

     iteration # 12     ecut=    20.00 Ry     beta= 0.70
     Davidson diagonalization with overlap
     ethr =  9.13E-10,  avg # of iterations =  1.0

     negative rho (up, down):  2.397E-04 0.000E+00

     total cpu time spent up to now is        1.1 secs

     total energy              =     -69.44278686 Ry
     estimated scf accuracy    <       0.00000007 Ry

     iteration # 13     ecut=    20.00 Ry     beta= 0.70
     Davidson diagonalization with overlap
     ethr =  6.79E-10,  avg # of iterations =  2.1

     negative rho (up, down):  2.397E-04 0.000E+00

     total cpu time spent up to now is        1.2 secs

     total energy              =     -69.44278689 Ry
     estimated scf accuracy    <       0.00000001 Ry

     iteration # 14     ecut=    20.00 Ry     beta= 0.70
     Davidson diagonalization with overlap
     ethr =  1.20E-10,  avg # of iterations =  4.5

     negative rho (up, down):  2.397E-04 0.000E+00

     total cpu time spent up to now is        1.3 secs

     total energy              =     -69.44278686 Ry
     estimated scf accuracy    <       0.00000012 Ry

     iteration # 15     ecut=    20.00 Ry     beta= 0.70
     Davidson diagonalization with overlap
     ethr =  1.20E-10,  avg # of iterations =  3.1

     negative rho (up, down):  2.396E-04 0.000E+00

     total cpu time spent up to now is        1.4 secs

     End of self-consistent calculation

          k = 0.0000 0.0000 0.0000 (   169 PWs)   bands (ev):

     7.5606   7.5606  13.8212  13.8212  13.8212  13.8212  14.8073  14.8073
    16.6490  16.6490

          k =-0.2500 0.2500-0.2500 (   150 PWs)   bands (ev):

     9.6423   9.6423  13.7212  13.7212  13.9977  13.9977  15.1900  15.1900
    16.5170  16.5170

          k = 0.5000-0.5000 0.5000 (   156 PWs)   bands (ev):

    10.5559  10.5559  13.6232  13.6232  14.6203  14.6203  17.3158  17.3158
    17.9459  17.9459

          k = 0.0000 0.5000 0.0000 (   149 PWs)   bands (ev):

    10.3452  10.3452  12.5463  12.5463  14.5937  14.5937  16.1257  16.1257
    16.2292  16.2292

          k = 0.7500-0.2500 0.7500 (   149 PWs)   bands (ev):

    11.6285  11.6285  12.7605  12.7605  14.3556  14.3556  16.0175  16.0175
    18.4091  18.4091

          k = 0.5000 0.0000 0.5000 (   156 PWs)   bands (ev):

    12.0353  12.0353  13.2140  13.2140  13.6480  13.6480  15.4986  15.4986
    16.6151  16.6151

          k = 0.0000-1.0000 0.0000 (   150 PWs)   bands (ev):

    10.7608  10.7608  11.2922  11.2922  17.9827  17.9827  18.3740  18.3740
    19.3423  19.3423

          k =-0.5000-1.0000 0.0000 (   156 PWs)   bands (ev):

    12.1741  12.1741  13.2438  13.2438  13.4800  13.4800  16.2097  16.2097
    18.7798  18.7798

     highest occupied level (ev):    19.3423

!    total energy              =     -69.44278688 Ry
     estimated scf accuracy    <          2.4E-09 Ry

     The total energy is the sum of the following terms:
     one-electron contribution =      17.65104835 Ry
     hartree contribution      =       3.70580652 Ry
     xc contribution           =     -28.58984425 Ry
     ewald contribution        =     -62.20979750 Ry

     convergence has been achieved in  15 iterations

     negative rho (up, down):  2.396E-04 0.000E+00

     Forces acting on atoms (cartesian axes, Ry/au):

     atom    1 type  1   force =     0.00000000    0.00000000    0.00000000

     Total force =     0.000000     Total SCF correction =     0.000000


     Computing stress (Cartesian axis) and pressure


     negative rho (up, down):  2.396E-04 0.000E+00
          total   stress  (Ry/bohr**3)                   (kbar)     P=      171.75
   0.00116754  -0.00000000   0.00000000          171.75       -0.00        0.00
  -0.00000000   0.00116754   0.00000000           -0.00      171.75        0.00
   0.00000000   0.00000000   0.00116754            0.00        0.00      171.75


     Writing all to output data dir ./platinum.save/ :
     XML data file, charge density, pseudopotentials, collected wavefunctions

     init_run     :      0.20s CPU      0.23s WALL (       1 calls)
     electrons    :      0.95s CPU      1.04s WALL (       1 calls)
     forces       :      0.02s CPU      0.02s WALL (       1 calls)
     stress       :      0.09s CPU      0.09s WALL (       1 calls)

     Called by init_run:
     wfcinit      :      0.02s CPU      0.03s WALL (       1 calls)
     potinit      :      0.01s CPU      0.01s WALL (       1 calls)
     hinit0       :      0.16s CPU      0.17s WALL (       1 calls)

     Called by electrons:
     c_bands      :      0.55s CPU      0.63s WALL (      16 calls)
     sum_band     :      0.22s CPU      0.23s WALL (      16 calls)
     v_of_rho     :      0.00s CPU      0.00s WALL (      16 calls)
     newd         :      0.18s CPU      0.18s WALL (      16 calls)
     mix_rho      :      0.01s CPU      0.01s WALL (      16 calls)

     Called by c_bands:
     init_us_2    :      0.01s CPU      0.01s WALL (     280 calls)
     cegterg      :      0.52s CPU      0.59s WALL (     128 calls)

     Called by *egterg:
     cdiaghg      :      0.03s CPU      0.04s WALL (     530 calls)
     h_psi        :      0.30s CPU      0.36s WALL (     546 calls)
     s_psi        :      0.05s CPU      0.05s WALL (     546 calls)
     g_psi        :      0.00s CPU      0.01s WALL (     410 calls)

     Called by h_psi:
     h_psi:calbec :      0.04s CPU      0.04s WALL (     546 calls)
     vloc_psi     :      0.21s CPU      0.25s WALL (     546 calls)
     add_vuspsi   :      0.05s CPU      0.05s WALL (     546 calls)

     General routines
     calbec       :      0.05s CPU      0.06s WALL (     714 calls)
     fft          :      0.02s CPU      0.03s WALL (     169 calls)
     ffts         :      0.00s CPU      0.00s WALL (      64 calls)
     fftw         :      0.16s CPU      0.20s WALL (   18732 calls)

     Parallel routines

     PWSCF        :      1.36s CPU      1.48s WALL


   This run was terminated on:  13:51:28   4Nov2024            

=------------------------------------------------------------------------------=
   JOB DONE.
=------------------------------------------------------------------------------=
