
     Program PWSCF v.7.3.1 starts on  4Nov2024 at 13:52:13 

     This program is part of the open-source Quantum ESPRESSO suite
     for quantum simulation of materials; please cite
         "P. Giannozzi et al., J. Phys.:Condens. Matter 21 395502 (2009);
         "P. Giannozzi et al., J. Phys.:Condens. Matter 29 465901 (2017);
         "P. Giannozzi et al., J. Chem. Phys. 152 154105 (2020);
          URL http://www.quantum-espresso.org", 
     in publications or presentations arising from this work. More details at
     http://www.quantum-espresso.org/quote

     Parallel version (MPI), running on     1 processors

     MPI processes distributed on     1 nodes
     14412 MiB available memory on the printing compute node when the environment starts

     Waiting for input...
     Reading input from standard input

     Current dimensions of program PWSCF are:
     Max number of different atomic species (ntypx) = 10
     Max number of k-points (npk) =  40000
     Max angular momentum in pseudopotentials (lmaxx) =  4

     Subspace diagonalization in iterative solution of the eigenvalue problem:
     a serial algorithm will be used


     G-vector sticks info
     --------------------
     sticks:   dense  smooth     PW     G-vecs:    dense   smooth      PW
     Sum         151     151     55                 1243     1243     283

     Using Slab Decomposition



     bravais-lattice index     =            2
     lattice parameter (alat)  =       7.3700  a.u.
     unit-cell volume          =     100.0789 (a.u.)^3
     number of atoms/cell      =            1
     number of atomic types    =            1
     number of electrons       =        10.00
     number of Kohn-Sham states=           10
     kinetic-energy cutoff     =      20.0000  Ry
     charge density cutoff     =      80.0000  Ry
     scf convergence threshold =      1.0E-08
     mixing beta               =       0.7000
     number of iterations used =            8  plain     mixing
     Exchange-correlation=  SLA  PZ   NOGX NOGC
                           (   1   1   0   0   0   0   0)
     Non magnetic calculation with spin-orbit


     celldm(1)=   7.370000  celldm(2)=   0.000000  celldm(3)=   0.000000
     celldm(4)=   0.000000  celldm(5)=   0.000000  celldm(6)=   0.000000

     crystal axes: (cart. coord. in units of alat)
               a(1) = (  -0.500000   0.000000   0.500000 )  
               a(2) = (   0.000000   0.500000   0.500000 )  
               a(3) = (  -0.500000   0.500000   0.000000 )  

     reciprocal axes: (cart. coord. in units 2 pi/alat)
               b(1) = ( -1.000000 -1.000000  1.000000 )  
               b(2) = (  1.000000  1.000000  1.000000 )  
               b(3) = ( -1.000000  1.000000 -1.000000 )  


     PseudoPot. # 1 for Pt read from file:
     /home/dashlander/Desktop/Sem7/CPD/Assignment_3/pseudo/Pt.rel-pz-n-rrkjus.UPF
     MD5 check sum: 4baafe8ec1942611396c7a5466f52249
     Pseudo is Ultrasoft + core correction, Zval = 10.0
     Generated by new atomic code, or converted to UPF format
     Using radial grid of 1277 points,  6 beta functions with: 
                l(1) =   2
                l(2) =   2
                l(3) =   2
                l(4) =   2
                l(5) =   1
                l(6) =   1
     Q(r) pseudized with 0 coefficients 


     atomic species   valence    mass     pseudopotential
     Pt               10.00   195.08400     Pt( 1.00)

     48 Sym. Ops., with inversion, found



   Cartesian axes

     site n.     atom                  positions (alat units)
         1        Pt     tau(   1) = (   0.0000000   0.0000000   0.0000000  )

     number of k points=    47
                       cart. coord. in units 2pi/alat
        k(    1) = (   0.0000000   0.0000000   0.0000000), wk =   0.0010000
        k(    2) = (  -0.1000000   0.1000000  -0.1000000), wk =   0.0080000
        k(    3) = (  -0.2000000   0.2000000  -0.2000000), wk =   0.0080000
        k(    4) = (  -0.3000000   0.3000000  -0.3000000), wk =   0.0080000
        k(    5) = (  -0.4000000   0.4000000  -0.4000000), wk =   0.0080000
        k(    6) = (   0.5000000  -0.5000000   0.5000000), wk =   0.0040000
        k(    7) = (   0.0000000   0.2000000   0.0000000), wk =   0.0060000
        k(    8) = (  -0.1000000   0.3000000  -0.1000000), wk =   0.0240000
        k(    9) = (  -0.2000000   0.4000000  -0.2000000), wk =   0.0240000
        k(   10) = (  -0.3000000   0.5000000  -0.3000000), wk =   0.0240000
        k(   11) = (   0.6000000  -0.4000000   0.6000000), wk =   0.0240000
        k(   12) = (   0.5000000  -0.3000000   0.5000000), wk =   0.0240000
        k(   13) = (   0.4000000  -0.2000000   0.4000000), wk =   0.0240000
        k(   14) = (   0.3000000  -0.1000000   0.3000000), wk =   0.0240000
        k(   15) = (   0.2000000   0.0000000   0.2000000), wk =   0.0120000
        k(   16) = (   0.0000000   0.4000000   0.0000000), wk =   0.0060000
        k(   17) = (  -0.1000000   0.5000000  -0.1000000), wk =   0.0240000
        k(   18) = (  -0.2000000   0.6000000  -0.2000000), wk =   0.0240000
        k(   19) = (   0.7000000  -0.3000000   0.7000000), wk =   0.0240000
        k(   20) = (   0.6000000  -0.2000000   0.6000000), wk =   0.0240000
        k(   21) = (   0.5000000  -0.1000000   0.5000000), wk =   0.0240000
        k(   22) = (   0.4000000   0.0000000   0.4000000), wk =   0.0120000
        k(   23) = (   0.0000000   0.6000000   0.0000000), wk =   0.0060000
        k(   24) = (  -0.1000000   0.7000000  -0.1000000), wk =   0.0240000
        k(   25) = (   0.8000000  -0.2000000   0.8000000), wk =   0.0240000
        k(   26) = (   0.7000000  -0.1000000   0.7000000), wk =   0.0240000
        k(   27) = (   0.6000000  -0.0000000   0.6000000), wk =   0.0120000
        k(   28) = (   0.0000000   0.8000000   0.0000000), wk =   0.0060000
        k(   29) = (   0.9000000  -0.1000000   0.9000000), wk =   0.0240000
        k(   30) = (   0.8000000   0.0000000   0.8000000), wk =   0.0120000
        k(   31) = (   0.0000000  -1.0000000   0.0000000), wk =   0.0030000
        k(   32) = (  -0.2000000   0.4000000   0.0000000), wk =   0.0240000
        k(   33) = (  -0.3000000   0.5000000  -0.1000000), wk =   0.0480000
        k(   34) = (   0.6000000  -0.4000000   0.8000000), wk =   0.0480000
        k(   35) = (   0.5000000  -0.3000000   0.7000000), wk =   0.0240000
        k(   36) = (  -0.2000000   0.6000000   0.0000000), wk =   0.0240000
        k(   37) = (   0.7000000  -0.3000000   0.9000000), wk =   0.0480000
        k(   38) = (   0.6000000  -0.2000000   0.8000000), wk =   0.0480000
        k(   39) = (   0.5000000  -0.1000000   0.7000000), wk =   0.0480000
        k(   40) = (   0.4000000   0.0000000   0.6000000), wk =   0.0240000
        k(   41) = (   0.8000000  -0.2000000   1.0000000), wk =   0.0240000
        k(   42) = (   0.7000000  -0.1000000   0.9000000), wk =   0.0480000
        k(   43) = (   0.6000000   0.0000000   0.8000000), wk =   0.0240000
        k(   44) = (  -0.2000000  -1.0000000   0.0000000), wk =   0.0120000
        k(   45) = (   0.6000000  -0.2000000   1.0000000), wk =   0.0240000
        k(   46) = (   0.5000000  -0.1000000   0.9000000), wk =   0.0240000
        k(   47) = (  -0.4000000  -1.0000000   0.0000000), wk =   0.0120000

     Dense  grid:     1243 G-vectors     FFT dimensions: (  15,  15,  15)

     Estimated max dynamical RAM per process >      12.55 MB

     Check: negative core charge=   -0.000029

     Initial potential from superposition of free atoms

     starting charge       9.9999, renormalised to      10.0000

     negative rho (up, down):  1.043E-04 0.000E+00
     Starting wfcs are   12 randomized atomic wfcs

     total cpu time spent up to now is        0.4 secs

     Self-consistent Calculation

     iteration #  1     ecut=    20.00 Ry     beta= 0.70
     Davidson diagonalization with overlap
     ethr =  1.00E-02,  avg # of iterations =  2.3

     Threshold (ethr) on eigenvalues was too large:
     Diagonalizing with lowered threshold

     Davidson diagonalization with overlap
     ethr =  1.39E-05,  avg # of iterations =  7.9

     negative rho (up, down):  1.947E-04 0.000E+00

     total cpu time spent up to now is        1.2 secs

     total energy              =     -69.45424624 Ry
     estimated scf accuracy    <       0.00368082 Ry

     iteration #  2     ecut=    20.00 Ry     beta= 0.70
     Davidson diagonalization with overlap
     ethr =  3.68E-05,  avg # of iterations =  2.1

     negative rho (up, down):  2.193E-04 0.000E+00

     total cpu time spent up to now is        1.5 secs

     total energy              =     -69.45520242 Ry
     estimated scf accuracy    <       0.00042176 Ry

     iteration #  3     ecut=    20.00 Ry     beta= 0.70
     Davidson diagonalization with overlap
     ethr =  4.22E-06,  avg # of iterations =  2.0

     negative rho (up, down):  2.376E-04 0.000E+00

     total cpu time spent up to now is        1.7 secs

     total energy              =     -69.45526937 Ry
     estimated scf accuracy    <       0.00001282 Ry

     iteration #  4     ecut=    20.00 Ry     beta= 0.70
     Davidson diagonalization with overlap
     ethr =  1.28E-07,  avg # of iterations =  6.7

     negative rho (up, down):  2.376E-04 0.000E+00

     total cpu time spent up to now is        2.1 secs

     total energy              =     -69.45601705 Ry
     estimated scf accuracy    <       0.00002235 Ry

     iteration #  5     ecut=    20.00 Ry     beta= 0.70
     Davidson diagonalization with overlap
     ethr =  1.28E-07,  avg # of iterations =  1.1

     negative rho (up, down):  2.379E-04 0.000E+00

     total cpu time spent up to now is        2.3 secs

     total energy              =     -69.45600524 Ry
     estimated scf accuracy    <       0.00001830 Ry

     iteration #  6     ecut=    20.00 Ry     beta= 0.70
     Davidson diagonalization with overlap
     ethr =  1.28E-07,  avg # of iterations =  2.5

     negative rho (up, down):  2.382E-04 0.000E+00

     total cpu time spent up to now is        2.6 secs

     total energy              =     -69.45601069 Ry
     estimated scf accuracy    <       0.00000046 Ry

     iteration #  7     ecut=    20.00 Ry     beta= 0.70
     Davidson diagonalization with overlap
     ethr =  4.58E-09,  avg # of iterations =  5.2

     negative rho (up, down):  2.382E-04 0.000E+00

     total cpu time spent up to now is        3.0 secs

     total energy              =     -69.45601121 Ry
     estimated scf accuracy    <       0.00000064 Ry

     iteration #  8     ecut=    20.00 Ry     beta= 0.70
     Davidson diagonalization with overlap
     ethr =  4.58E-09,  avg # of iterations =  1.0

     negative rho (up, down):  2.383E-04 0.000E+00

     total cpu time spent up to now is        3.2 secs

     total energy              =     -69.45601070 Ry
     estimated scf accuracy    <       0.00000085 Ry

     iteration #  9     ecut=    20.00 Ry     beta= 0.70
     Davidson diagonalization with overlap
     ethr =  4.58E-09,  avg # of iterations =  2.3

     negative rho (up, down):  2.383E-04 0.000E+00

     total cpu time spent up to now is        3.4 secs

     End of self-consistent calculation

          k = 0.0000 0.0000 0.0000 (   169 PWs)   bands (ev):

     7.5640   7.5640  13.7739  13.7739  13.7739  13.7739  14.7628  14.7628
    16.6050  16.6050

          k =-0.1000 0.1000-0.1000 (   153 PWs)   bands (ev):

     7.9663   7.9663  13.7318  13.7318  13.8673  13.8673  14.8505  14.8505
    16.4648  16.4648

          k =-0.2000 0.2000-0.2000 (   153 PWs)   bands (ev):

     9.0275   9.0275  13.6035  13.6035  13.9776  13.9776  15.1370  15.1370
    16.3007  16.3007

          k =-0.3000 0.3000-0.3000 (   153 PWs)   bands (ev):

    10.1347  10.1347  13.8722  13.8722  14.0597  14.0597  15.0255  15.0255
    16.8327  16.8327

          k =-0.4000 0.4000-0.4000 (   147 PWs)   bands (ev):

    10.5135  10.5135  13.6718  13.6718  14.7065  14.7065  15.8342  15.8342
    17.6350  17.6350

          k = 0.5000-0.5000 0.5000 (   156 PWs)   bands (ev):

    10.5337  10.5337  13.5814  13.5814  14.5829  14.5829  17.3247  17.3247
    17.8894  17.8894

          k = 0.0000 0.2000 0.0000 (   161 PWs)   bands (ev):

     8.1000   8.1000  13.5989  13.5989  13.9986  13.9986  14.9103  14.9103
    16.2745  16.2745

          k =-0.1000 0.3000-0.1000 (   155 PWs)   bands (ev):

     8.9592   8.9592  13.3529  13.3529  14.1607  14.1607  15.2272  15.2272
    16.0472  16.0472

          k =-0.2000 0.4000-0.2000 (   153 PWs)   bands (ev):

    10.1523  10.1523  13.3573  13.3573  14.0339  14.0339  15.2254  15.2254
    16.5956  16.5956

          k =-0.3000 0.5000-0.3000 (   148 PWs)   bands (ev):

    10.7792  10.7792  13.7048  13.7048  14.3752  14.3752  14.9769  14.9769
    17.7504  17.7504

          k = 0.6000-0.4000 0.6000 (   155 PWs)   bands (ev):

    10.8475  10.8475  13.5435  13.5435  14.6249  14.6249  15.8427  15.8427
    18.2099  18.2099

          k = 0.5000-0.3000 0.5000 (   152 PWs)   bands (ev):

    10.8595  10.8595  13.5902  13.5902  14.6599  14.6599  15.6104  15.6104
    17.7570  17.7570

          k = 0.4000-0.2000 0.4000 (   149 PWs)   bands (ev):

    10.6948  10.6948  13.7480  13.7480  14.1560  14.1560  14.9669  14.9669
    16.8439  16.8439

          k = 0.3000-0.1000 0.3000 (   153 PWs)   bands (ev):

     9.7760   9.7760  13.3759  13.3759  14.0771  14.0771  15.2856  15.2856
    16.0509  16.0509

          k = 0.2000 0.0000 0.2000 (   157 PWs)   bands (ev):

     8.5996   8.5996  13.5454  13.5454  14.0298  14.0298  15.0630  15.0630
    16.1596  16.1596

          k = 0.0000 0.4000 0.0000 (   153 PWs)   bands (ev):

     9.5333   9.5333  12.9297  12.9297  14.4313  14.4313  15.6311  15.6311
    15.8407  15.8407

          k =-0.1000 0.5000-0.1000 (   156 PWs)   bands (ev):

    10.5242  10.5242  12.6140  12.6140  14.2852  14.2852  15.8522  15.8522
    16.5386  16.5386

          k =-0.2000 0.6000-0.2000 (   147 PWs)   bands (ev):

    11.2972  11.2972  12.8439  12.8439  13.9512  13.9512  15.6824  15.6824
    17.9071  17.9071

          k = 0.7000-0.3000 0.7000 (   153 PWs)   bands (ev):

    11.4938  11.4938  13.1592  13.1592  14.2734  14.2734  15.4664  15.4664
    18.2975  18.2975

          k = 0.6000-0.2000 0.6000 (   153 PWs)   bands (ev):

    11.6401  11.6401  13.2071  13.2071  14.5356  14.5356  15.3205  15.3205
    17.7862  17.7862

          k = 0.5000-0.1000 0.5000 (   150 PWs)   bands (ev):

    11.7184  11.7184  13.3928  13.3928  13.8495  13.8495  15.2607  15.2607
    16.8251  16.8251

          k = 0.4000 0.0000 0.4000 (   152 PWs)   bands (ev):

    10.9955  10.9955  13.1155  13.1155  13.9539  13.9539  15.4679  15.4679
    15.9608  15.9608

          k = 0.0000 0.6000 0.0000 (   149 PWs)   bands (ev):

    10.8947  10.8947  12.1004  12.1004  14.9633  14.9633  16.6303  16.6303
    16.7750  16.7750

          k =-0.1000 0.7000-0.1000 (   147 PWs)   bands (ev):

    11.2182  11.2182  11.9067  11.9067  15.1961  15.1961  16.8598  16.8598
    17.9125  17.9125

          k = 0.8000-0.2000 0.8000 (   148 PWs)   bands (ev):

    11.4722  11.4722  12.2234  12.2234  14.9232  14.9232  16.5793  16.5793
    18.4225  18.4225

          k = 0.7000-0.1000 0.7000 (   152 PWs)   bands (ev):

    11.8259  11.8259  12.7597  12.7597  14.4594  14.4594  16.2083  16.2083
    17.9764  17.9764

          k = 0.6000-0.0000 0.6000 (   148 PWs)   bands (ev):

    12.2530  12.2530  13.1659  13.1659  13.7502  13.7502  15.7804  15.7804
    17.2262  17.2262

          k = 0.0000 0.8000 0.0000 (   146 PWs)   bands (ev):

    10.9221  10.9221  11.4817  11.4817  17.1577  17.1577  17.6695  17.6695
    18.1204  18.1204

          k = 0.9000-0.1000 0.9000 (   150 PWs)   bands (ev):

    10.9814  10.9814  11.4884  11.4884  16.8169  16.8169  17.6726  17.6726
    18.6777  18.6777

          k = 0.8000 0.0000 0.8000 (   146 PWs)   bands (ev):

    11.3482  11.3482  11.9934  11.9934  15.6612  15.6612  17.1235  17.1235
    18.3838  18.3838

          k = 0.0000-1.0000 0.0000 (   150 PWs)   bands (ev):

    10.7412  10.7412  11.2575  11.2575  17.9312  17.9312  18.3117  18.3117
    19.2827  19.2827

          k =-0.2000 0.4000 0.0000 (   152 PWs)   bands (ev):

     9.9429   9.9429  13.0317  13.0317  14.1811  14.1811  15.6104  15.6104
    15.9165  15.9165

          k =-0.3000 0.5000-0.1000 (   148 PWs)   bands (ev):

    11.0620  11.0620  13.0811  13.0811  13.8359  13.8359  15.4989  15.4989
    16.6598  16.6598

          k = 0.6000-0.4000 0.8000 (   148 PWs)   bands (ev):

    11.4122  11.4122  13.3997  13.3997  14.1258  14.1258  15.2735  15.2735
    17.6794  17.6794

          k = 0.5000-0.3000 0.7000 (   152 PWs)   bands (ev):

    11.4146  11.4146  13.2551  13.2551  14.6686  14.6686  15.3187  15.3187
    18.0545  18.0545

          k =-0.2000 0.6000 0.0000 (   146 PWs)   bands (ev):

    11.3063  11.3063  12.3317  12.3317  14.1646  14.1646  16.5686  16.5686
    16.7832  16.7832

          k = 0.7000-0.3000 0.9000 (   150 PWs)   bands (ev):

    11.7900  11.7900  12.5665  12.5665  13.9273  13.9273  16.3500  16.3500
    17.7923  17.7923

          k = 0.6000-0.2000 0.8000 (   153 PWs)   bands (ev):

    12.0092  12.0092  12.8196  12.8196  14.0534  14.0534  15.9797  15.9797
    18.0906  18.0906

          k = 0.5000-0.1000 0.7000 (   151 PWs)   bands (ev):

    12.3152  12.3152  12.8850  12.8850  13.7655  13.7655  15.8586  15.8586
    17.6292  17.6292

          k = 0.4000 0.0000 0.6000 (   148 PWs)   bands (ev):

    12.1871  12.1871  12.9304  12.9304  13.3510  13.3510  15.9390  15.9390
    16.8182  16.8182

          k = 0.8000-0.2000 1.0000 (   152 PWs)   bands (ev):

    11.3289  11.3289  11.7922  11.7922  15.4123  15.4123  17.4607  17.4607
    18.0900  18.0900

          k = 0.7000-0.1000 0.9000 (   151 PWs)   bands (ev):

    11.6137  11.6137  12.1643  12.1643  14.9396  14.9396  16.9026  16.9026
    18.4557  18.4557

          k = 0.6000 0.0000 0.8000 (   151 PWs)   bands (ev):

    12.0664  12.0664  12.7501  12.7501  14.1233  14.1233  16.3103  16.3103
    18.0925  18.0925

          k =-0.2000-1.0000 0.0000 (   152 PWs)   bands (ev):

    11.1275  11.1275  11.5943  11.5943  16.3519  16.3519  17.5453  17.5453
    18.8124  18.8124

          k = 0.6000-0.2000 1.0000 (   156 PWs)   bands (ev):

    12.2513  12.2513  12.6866  12.6866  13.6215  13.6215  16.5207  16.5207
    18.0355  18.0355

          k = 0.5000-0.1000 0.9000 (   152 PWs)   bands (ev):

    12.3023  12.3023  12.9808  12.9808  13.5282  13.5282  16.1981  16.1981
    18.3808  18.3808

          k =-0.4000-1.0000 0.0000 (   150 PWs)   bands (ev):

    11.9606  11.9606  12.5840  12.5840  14.2195  14.2195  16.4208  16.4208
    18.7294  18.7294

     highest occupied level (ev):    19.2827

!    total energy              =     -69.45601086 Ry
     estimated scf accuracy    <          4.1E-09 Ry

     The total energy is the sum of the following terms:
     one-electron contribution =      17.64980714 Ry
     hartree contribution      =       3.68002190 Ry
     xc contribution           =     -28.57604241 Ry
     ewald contribution        =     -62.20979750 Ry

     convergence has been achieved in   9 iterations

     negative rho (up, down):  2.383E-04 0.000E+00

     Forces acting on atoms (cartesian axes, Ry/au):

     atom    1 type  1   force =     0.00000000    0.00000000    0.00000000

     Total force =     0.000000     Total SCF correction =     0.000000


     Computing stress (Cartesian axis) and pressure


     negative rho (up, down):  2.383E-04 0.000E+00
          total   stress  (Ry/bohr**3)                   (kbar)     P=      124.14
   0.00084385   0.00000000   0.00000000          124.14        0.00        0.00
   0.00000000   0.00084385  -0.00000000            0.00      124.14       -0.00
   0.00000000  -0.00000000   0.00084385            0.00       -0.00      124.14


     Writing all to output data dir ./platinum.save/ :
     XML data file, charge density, pseudopotentials, collected wavefunctions

     init_run     :      0.25s CPU      0.30s WALL (       1 calls)
     electrons    :      2.71s CPU      3.04s WALL (       1 calls)
     forces       :      0.04s CPU      0.05s WALL (       1 calls)
     stress       :      0.19s CPU      0.19s WALL (       1 calls)

     Called by init_run:
     wfcinit      :      0.06s CPU      0.10s WALL (       1 calls)
     potinit      :      0.01s CPU      0.01s WALL (       1 calls)
     hinit0       :      0.16s CPU      0.18s WALL (       1 calls)

     Called by electrons:
     c_bands      :      2.16s CPU      2.43s WALL (      10 calls)
     sum_band     :      0.44s CPU      0.49s WALL (      10 calls)
     v_of_rho     :      0.00s CPU      0.00s WALL (      10 calls)
     newd         :      0.11s CPU      0.11s WALL (      10 calls)
     mix_rho      :      0.00s CPU      0.00s WALL (      10 calls)

     Called by c_bands:
     init_us_2    :      0.04s CPU      0.04s WALL (    1081 calls)
     cegterg      :      2.02s CPU      2.28s WALL (     470 calls)

     Called by *egterg:
     cdiaghg      :      0.13s CPU      0.15s WALL (    1980 calls)
     h_psi        :      1.18s CPU      1.35s WALL (    2074 calls)
     s_psi        :      0.19s CPU      0.21s WALL (    2074 calls)
     g_psi        :      0.02s CPU      0.02s WALL (    1557 calls)

     Called by h_psi:
     h_psi:calbec :      0.15s CPU      0.17s WALL (    2074 calls)
     vloc_psi     :      0.82s CPU      0.95s WALL (    2074 calls)
     add_vuspsi   :      0.18s CPU      0.21s WALL (    2074 calls)

     General routines
     calbec       :      0.20s CPU      0.23s WALL (    2779 calls)
     fft          :      0.02s CPU      0.03s WALL (     109 calls)
     ffts         :      0.00s CPU      0.00s WALL (      40 calls)
     fftw         :      0.61s CPU      0.71s WALL (   73020 calls)

     Parallel routines

     PWSCF        :      3.29s CPU      3.68s WALL


   This run was terminated on:  13:52:16   4Nov2024            

=------------------------------------------------------------------------------=
   JOB DONE.
=------------------------------------------------------------------------------=
