
     Program PWSCF v.7.3.1 starts on  4Nov2024 at 13:51:30 

     This program is part of the open-source Quantum ESPRESSO suite
     for quantum simulation of materials; please cite
         "P. Giannozzi et al., J. Phys.:Condens. Matter 21 395502 (2009);
         "P. Giannozzi et al., J. Phys.:Condens. Matter 29 465901 (2017);
         "P. Giannozzi et al., J. Chem. Phys. 152 154105 (2020);
          URL http://www.quantum-espresso.org", 
     in publications or presentations arising from this work. More details at
     http://www.quantum-espresso.org/quote

     Parallel version (MPI), running on     1 processors

     MPI processes distributed on     1 nodes
     14397 MiB available memory on the printing compute node when the environment starts

     Waiting for input...
     Reading input from standard input

     Current dimensions of program PWSCF are:
     Max number of different atomic species (ntypx) = 10
     Max number of k-points (npk) =  40000
     Max angular momentum in pseudopotentials (lmaxx) =  4

     Subspace diagonalization in iterative solution of the eigenvalue problem:
     a serial algorithm will be used


     G-vector sticks info
     --------------------
     sticks:   dense  smooth     PW     G-vecs:    dense   smooth      PW
     Sum         151     151     55                 1243     1243     283

     Using Slab Decomposition



     bravais-lattice index     =            2
     lattice parameter (alat)  =       7.3700  a.u.
     unit-cell volume          =     100.0789 (a.u.)^3
     number of atoms/cell      =            1
     number of atomic types    =            1
     number of electrons       =        10.00
     number of Kohn-Sham states=           10
     kinetic-energy cutoff     =      20.0000  Ry
     charge density cutoff     =      80.0000  Ry
     scf convergence threshold =      1.0E-08
     mixing beta               =       0.7000
     number of iterations used =            8  plain     mixing
     Exchange-correlation=  SLA  PZ   NOGX NOGC
                           (   1   1   0   0   0   0   0)
     Non magnetic calculation with spin-orbit


     celldm(1)=   7.370000  celldm(2)=   0.000000  celldm(3)=   0.000000
     celldm(4)=   0.000000  celldm(5)=   0.000000  celldm(6)=   0.000000

     crystal axes: (cart. coord. in units of alat)
               a(1) = (  -0.500000   0.000000   0.500000 )  
               a(2) = (   0.000000   0.500000   0.500000 )  
               a(3) = (  -0.500000   0.500000   0.000000 )  

     reciprocal axes: (cart. coord. in units 2 pi/alat)
               b(1) = ( -1.000000 -1.000000  1.000000 )  
               b(2) = (  1.000000  1.000000  1.000000 )  
               b(3) = ( -1.000000  1.000000 -1.000000 )  


     PseudoPot. # 1 for Pt read from file:
     /home/dashlander/Desktop/Sem7/CPD/Assignment_3/pseudo/Pt.rel-pz-n-rrkjus.UPF
     MD5 check sum: 4baafe8ec1942611396c7a5466f52249
     Pseudo is Ultrasoft + core correction, Zval = 10.0
     Generated by new atomic code, or converted to UPF format
     Using radial grid of 1277 points,  6 beta functions with: 
                l(1) =   2
                l(2) =   2
                l(3) =   2
                l(4) =   2
                l(5) =   1
                l(6) =   1
     Q(r) pseudized with 0 coefficients 


     atomic species   valence    mass     pseudopotential
     Pt               10.00   195.08400     Pt( 1.00)

     48 Sym. Ops., with inversion, found



   Cartesian axes

     site n.     atom                  positions (alat units)
         1        Pt     tau(   1) = (   0.0000000   0.0000000   0.0000000  )

     number of k points=    10
                       cart. coord. in units 2pi/alat
        k(    1) = (  -0.1250000   0.1250000   0.1250000), wk =   0.0312500
        k(    2) = (  -0.3750000   0.3750000  -0.1250000), wk =   0.0937500
        k(    3) = (   0.3750000  -0.3750000   0.6250000), wk =   0.0937500
        k(    4) = (   0.1250000  -0.1250000   0.3750000), wk =   0.0937500
        k(    5) = (  -0.1250000   0.6250000   0.1250000), wk =   0.0937500
        k(    6) = (   0.6250000  -0.1250000   0.8750000), wk =   0.1875000
        k(    7) = (   0.3750000   0.1250000   0.6250000), wk =   0.1875000
        k(    8) = (  -0.1250000  -0.8750000   0.1250000), wk =   0.0937500
        k(    9) = (  -0.3750000   0.3750000   0.3750000), wk =   0.0312500
        k(   10) = (   0.3750000  -0.3750000   1.1250000), wk =   0.0937500

     Dense  grid:     1243 G-vectors     FFT dimensions: (  15,  15,  15)

     Estimated max dynamical RAM per process >      10.84 MB

     Check: negative core charge=   -0.000029

     Initial potential from superposition of free atoms

     starting charge       9.9999, renormalised to      10.0000

     negative rho (up, down):  1.043E-04 0.000E+00
     Starting wfcs are   12 randomized atomic wfcs

     total cpu time spent up to now is        0.3 secs

     Self-consistent Calculation

     iteration #  1     ecut=    20.00 Ry     beta= 0.70
     Davidson diagonalization with overlap
     ethr =  1.00E-02,  avg # of iterations =  2.3

     Threshold (ethr) on eigenvalues was too large:
     Diagonalizing with lowered threshold

     Davidson diagonalization with overlap
     ethr =  1.15E-05,  avg # of iterations =  8.7

     negative rho (up, down):  1.945E-04 0.000E+00

     total cpu time spent up to now is        0.5 secs

     total energy              =     -69.45502119 Ry
     estimated scf accuracy    <       0.00403339 Ry

     iteration #  2     ecut=    20.00 Ry     beta= 0.70
     Davidson diagonalization with overlap
     ethr =  4.03E-05,  avg # of iterations =  2.2

     negative rho (up, down):  2.189E-04 0.000E+00

     total cpu time spent up to now is        0.6 secs

     total energy              =     -69.45610751 Ry
     estimated scf accuracy    <       0.00050807 Ry

     iteration #  3     ecut=    20.00 Ry     beta= 0.70
     Davidson diagonalization with overlap
     ethr =  5.08E-06,  avg # of iterations =  2.1

     negative rho (up, down):  2.375E-04 0.000E+00

     total cpu time spent up to now is        0.7 secs

     total energy              =     -69.45618647 Ry
     estimated scf accuracy    <       0.00001509 Ry

     iteration #  4     ecut=    20.00 Ry     beta= 0.70
     Davidson diagonalization with overlap
     ethr =  1.51E-07,  avg # of iterations =  6.6

     negative rho (up, down):  2.375E-04 0.000E+00

     total cpu time spent up to now is        0.8 secs

     total energy              =     -69.45621371 Ry
     estimated scf accuracy    <       0.00000289 Ry

     iteration #  5     ecut=    20.00 Ry     beta= 0.70
     Davidson diagonalization with overlap
     ethr =  2.89E-08,  avg # of iterations =  3.7

     negative rho (up, down):  2.379E-04 0.000E+00

     total cpu time spent up to now is        0.9 secs

     total energy              =     -69.45621432 Ry
     estimated scf accuracy    <       0.00000106 Ry

     iteration #  6     ecut=    20.00 Ry     beta= 0.70
     Davidson diagonalization with overlap
     ethr =  1.06E-08,  avg # of iterations =  2.7

     negative rho (up, down):  2.383E-04 0.000E+00

     total cpu time spent up to now is        0.9 secs

     total energy              =     -69.45621407 Ry
     estimated scf accuracy    <       0.00000053 Ry

     iteration #  7     ecut=    20.00 Ry     beta= 0.70
     Davidson diagonalization with overlap
     ethr =  5.33E-09,  avg # of iterations =  2.5

     negative rho (up, down):  2.384E-04 0.000E+00

     total cpu time spent up to now is        1.0 secs

     total energy              =     -69.45621424 Ry
     estimated scf accuracy    <       0.00000002 Ry

     iteration #  8     ecut=    20.00 Ry     beta= 0.70
     Davidson diagonalization with overlap
     ethr =  1.53E-10,  avg # of iterations =  4.8

     negative rho (up, down):  2.383E-04 0.000E+00

     total cpu time spent up to now is        1.1 secs

     End of self-consistent calculation

          k =-0.1250 0.1250 0.1250 (   153 PWs)   bands (ev):

     8.1823   8.1823  13.7024  13.7024  13.9102  13.9102  14.9186  14.9186
    16.4057  16.4057

          k =-0.3750 0.3750-0.1250 (   149 PWs)   bands (ev):

    10.6028  10.6028  13.4423  13.4423  14.0023  14.0023  15.1804  15.1804
    16.3396  16.3396

          k = 0.3750-0.3750 0.6250 (   155 PWs)   bands (ev):

    11.0091  11.0091  13.4911  13.4911  14.6647  14.6647  15.4800  15.4800
    18.2364  18.2364

          k = 0.1250-0.1250 0.3750 (   154 PWs)   bands (ev):

     9.6320   9.6320  13.1427  13.1427  14.2071  14.2071  15.4087  15.4087
    16.1235  16.1235

          k =-0.1250 0.6250 0.1250 (   149 PWs)   bands (ev):

    11.2313  11.2313  12.2504  12.2504  14.4602  14.4602  16.2970  16.2970
    17.6099  17.6099

          k = 0.6250-0.1250 0.8750 (   154 PWs)   bands (ev):

    11.9782  11.9782  12.5710  12.5710  14.1937  14.1937  16.4774  16.4774
    18.2983  18.2983

          k = 0.3750 0.1250 0.6250 (   149 PWs)   bands (ev):

    11.7867  11.7867  13.1885  13.1885  13.5775  13.5775  15.7096  15.7096
    17.4410  17.4410

          k =-0.1250-0.8750 0.1250 (   148 PWs)   bands (ev):

    11.1026  11.1026  11.6261  11.6261  16.3155  16.3155  17.4540  17.4540
    18.5942  18.5942

          k =-0.3750 0.3750 0.3750 (   153 PWs)   bands (ev):

    10.4799  10.4799  13.7216  13.7216  14.7702  14.7702  15.3163  15.3163
    17.4623  17.4623

          k = 0.3750-0.3750 1.1250 (   151 PWs)   bands (ev):

    11.9813  11.9813  13.0639  13.0639  14.2032  14.2032  15.6611  15.6611
    17.6508  17.6508

     highest occupied level (ev):    18.5942

!    total energy              =     -69.45621425 Ry
     estimated scf accuracy    <          3.3E-09 Ry

     The total energy is the sum of the following terms:
     one-electron contribution =      17.64841477 Ry
     hartree contribution      =       3.68222818 Ry
     xc contribution           =     -28.57705971 Ry
     ewald contribution        =     -62.20979750 Ry

     convergence has been achieved in   8 iterations

     negative rho (up, down):  2.383E-04 0.000E+00

     Forces acting on atoms (cartesian axes, Ry/au):

     atom    1 type  1   force =     0.00000000    0.00000000    0.00000000

     Total force =     0.000000     Total SCF correction =     0.000000


     Computing stress (Cartesian axis) and pressure


     negative rho (up, down):  2.383E-04 0.000E+00
          total   stress  (Ry/bohr**3)                   (kbar)     P=      126.08
   0.00085710   0.00000000   0.00000000          126.08        0.00        0.00
   0.00000000   0.00085710   0.00000000            0.00      126.08        0.00
   0.00000000   0.00000000   0.00085710            0.00        0.00      126.08


     Writing all to output data dir ./platinum.save/ :
     XML data file, charge density, pseudopotentials, collected wavefunctions

     init_run     :      0.19s CPU      0.24s WALL (       1 calls)
     electrons    :      0.66s CPU      0.74s WALL (       1 calls)
     forces       :      0.02s CPU      0.02s WALL (       1 calls)
     stress       :      0.10s CPU      0.10s WALL (       1 calls)

     Called by init_run:
     wfcinit      :      0.02s CPU      0.04s WALL (       1 calls)
     potinit      :      0.01s CPU      0.01s WALL (       1 calls)
     hinit0       :      0.15s CPU      0.18s WALL (       1 calls)

     Called by electrons:
     c_bands      :      0.42s CPU      0.50s WALL (       9 calls)
     sum_band     :      0.14s CPU      0.14s WALL (       9 calls)
     v_of_rho     :      0.00s CPU      0.00s WALL (       9 calls)
     newd         :      0.10s CPU      0.10s WALL (       9 calls)
     mix_rho      :      0.00s CPU      0.00s WALL (       9 calls)

     Called by c_bands:
     init_us_2    :      0.01s CPU      0.01s WALL (     210 calls)
     cegterg      :      0.40s CPU      0.47s WALL (      90 calls)

     Called by *egterg:
     cdiaghg      :      0.03s CPU      0.03s WALL (     436 calls)
     h_psi        :      0.24s CPU      0.30s WALL (     456 calls)
     s_psi        :      0.04s CPU      0.05s WALL (     456 calls)
     g_psi        :      0.00s CPU      0.00s WALL (     356 calls)

     Called by h_psi:
     h_psi:calbec :      0.03s CPU      0.04s WALL (     456 calls)
     vloc_psi     :      0.16s CPU      0.21s WALL (     456 calls)
     add_vuspsi   :      0.04s CPU      0.04s WALL (     456 calls)

     General routines
     calbec       :      0.04s CPU      0.05s WALL (     596 calls)
     fft          :      0.01s CPU      0.03s WALL (      99 calls)
     ffts         :      0.00s CPU      0.00s WALL (      36 calls)
     fftw         :      0.12s CPU      0.16s WALL (   14664 calls)

     Parallel routines

     PWSCF        :      1.06s CPU      1.20s WALL


   This run was terminated on:  13:51:31   4Nov2024            

=------------------------------------------------------------------------------=
   JOB DONE.
=------------------------------------------------------------------------------=
