
     Program PWSCF v.7.3.1 starts on  4Nov2024 at 13:52: 6 

     This program is part of the open-source Quantum ESPRESSO suite
     for quantum simulation of materials; please cite
         "P. Giannozzi et al., J. Phys.:Condens. Matter 21 395502 (2009);
         "P. Giannozzi et al., J. Phys.:Condens. Matter 29 465901 (2017);
         "P. Giannozzi et al., J. Chem. Phys. 152 154105 (2020);
          URL http://www.quantum-espresso.org", 
     in publications or presentations arising from this work. More details at
     http://www.quantum-espresso.org/quote

     Parallel version (MPI), running on     1 processors

     MPI processes distributed on     1 nodes
     14421 MiB available memory on the printing compute node when the environment starts

     Waiting for input...
     Reading input from standard input

     Current dimensions of program PWSCF are:
     Max number of different atomic species (ntypx) = 10
     Max number of k-points (npk) =  40000
     Max angular momentum in pseudopotentials (lmaxx) =  4

     Subspace diagonalization in iterative solution of the eigenvalue problem:
     a serial algorithm will be used


     G-vector sticks info
     --------------------
     sticks:   dense  smooth     PW     G-vecs:    dense   smooth      PW
     Sum         151     151     61                 1243     1243     331

     Using Slab Decomposition



     bravais-lattice index     =            2
     lattice parameter (alat)  =       7.3700  a.u.
     unit-cell volume          =     100.0789 (a.u.)^3
     number of atoms/cell      =            1
     number of atomic types    =            1
     number of electrons       =        10.00
     number of Kohn-Sham states=           10
     kinetic-energy cutoff     =      20.0000  Ry
     charge density cutoff     =      80.0000  Ry
     scf convergence threshold =      1.0E-08
     mixing beta               =       0.7000
     number of iterations used =            8  plain     mixing
     Exchange-correlation=  SLA  PZ   NOGX NOGC
                           (   1   1   0   0   0   0   0)
     Non magnetic calculation with spin-orbit


     celldm(1)=   7.370000  celldm(2)=   0.000000  celldm(3)=   0.000000
     celldm(4)=   0.000000  celldm(5)=   0.000000  celldm(6)=   0.000000

     crystal axes: (cart. coord. in units of alat)
               a(1) = (  -0.500000   0.000000   0.500000 )  
               a(2) = (   0.000000   0.500000   0.500000 )  
               a(3) = (  -0.500000   0.500000   0.000000 )  

     reciprocal axes: (cart. coord. in units 2 pi/alat)
               b(1) = ( -1.000000 -1.000000  1.000000 )  
               b(2) = (  1.000000  1.000000  1.000000 )  
               b(3) = ( -1.000000  1.000000 -1.000000 )  


     PseudoPot. # 1 for Pt read from file:
     /home/dashlander/Desktop/Sem7/CPD/Assignment_3/pseudo/Pt.rel-pz-n-rrkjus.UPF
     MD5 check sum: 4baafe8ec1942611396c7a5466f52249
     Pseudo is Ultrasoft + core correction, Zval = 10.0
     Generated by new atomic code, or converted to UPF format
     Using radial grid of 1277 points,  6 beta functions with: 
                l(1) =   2
                l(2) =   2
                l(3) =   2
                l(4) =   2
                l(5) =   1
                l(6) =   1
     Q(r) pseudized with 0 coefficients 


     atomic species   valence    mass     pseudopotential
     Pt               10.00   195.08400     Pt( 1.00)

     48 Sym. Ops., with inversion, found



   Cartesian axes

     site n.     atom                  positions (alat units)
         1        Pt     tau(   1) = (   0.0000000   0.0000000   0.0000000  )

     number of k points=    85
                       cart. coord. in units 2pi/alat
        k(    1) = (  -0.0555556   0.0555556   0.0555556), wk =   0.0027435
        k(    2) = (  -0.1666667   0.1666667  -0.0555556), wk =   0.0082305
        k(    3) = (  -0.2777778   0.2777778  -0.1666667), wk =   0.0082305
        k(    4) = (  -0.3888889   0.3888889  -0.2777778), wk =   0.0082305
        k(    5) = (   0.5000000  -0.5000000   0.6111111), wk =   0.0082305
        k(    6) = (   0.3888889  -0.3888889   0.5000000), wk =   0.0082305
        k(    7) = (   0.2777778  -0.2777778   0.3888889), wk =   0.0082305
        k(    8) = (   0.1666667  -0.1666667   0.2777778), wk =   0.0082305
        k(    9) = (   0.0555556  -0.0555556   0.1666667), wk =   0.0082305
        k(   10) = (  -0.0555556   0.2777778   0.0555556), wk =   0.0082305
        k(   11) = (  -0.1666667   0.3888889  -0.0555556), wk =   0.0164609
        k(   12) = (  -0.2777778   0.5000000  -0.1666667), wk =   0.0164609
        k(   13) = (   0.6111111  -0.3888889   0.7222222), wk =   0.0164609
        k(   14) = (   0.5000000  -0.2777778   0.6111111), wk =   0.0164609
        k(   15) = (   0.3888889  -0.1666667   0.5000000), wk =   0.0164609
        k(   16) = (   0.2777778  -0.0555556   0.3888889), wk =   0.0164609
        k(   17) = (   0.1666667   0.0555556   0.2777778), wk =   0.0164609
        k(   18) = (  -0.0555556   0.5000000   0.0555556), wk =   0.0082305
        k(   19) = (  -0.1666667   0.6111111  -0.0555556), wk =   0.0164609
        k(   20) = (   0.7222222  -0.2777778   0.8333333), wk =   0.0164609
        k(   21) = (   0.6111111  -0.1666667   0.7222222), wk =   0.0164609
        k(   22) = (   0.5000000  -0.0555556   0.6111111), wk =   0.0164609
        k(   23) = (   0.3888889   0.0555556   0.5000000), wk =   0.0164609
        k(   24) = (   0.2777778   0.1666667   0.3888889), wk =   0.0164609
        k(   25) = (  -0.0555556   0.7222222   0.0555556), wk =   0.0082305
        k(   26) = (   0.8333333  -0.1666667   0.9444444), wk =   0.0164609
        k(   27) = (   0.7222222  -0.0555556   0.8333333), wk =   0.0164609
        k(   28) = (   0.6111111   0.0555556   0.7222222), wk =   0.0164609
        k(   29) = (   0.5000000   0.1666667   0.6111111), wk =   0.0164609
        k(   30) = (   0.3888889   0.2777778   0.5000000), wk =   0.0164609
        k(   31) = (  -0.0555556  -1.0555556   0.0555556), wk =   0.0082305
        k(   32) = (  -0.1666667  -0.9444444  -0.0555556), wk =   0.0164609
        k(   33) = (  -0.2777778  -0.8333333  -0.1666667), wk =   0.0164609
        k(   34) = (  -0.3888889  -0.7222222  -0.2777778), wk =   0.0164609
        k(   35) = (  -0.5000000  -0.6111111  -0.3888889), wk =   0.0082305
        k(   36) = (  -0.0555556  -0.8333333   0.0555556), wk =   0.0082305
        k(   37) = (  -0.1666667  -0.7222222  -0.0555556), wk =   0.0164609
        k(   38) = (  -0.2777778  -0.6111111  -0.1666667), wk =   0.0164609
        k(   39) = (  -0.0555556  -0.6111111   0.0555556), wk =   0.0082305
        k(   40) = (  -0.1666667  -0.5000000  -0.0555556), wk =   0.0164609
        k(   41) = (  -0.0555556  -0.3888889   0.0555556), wk =   0.0082305
        k(   42) = (  -0.1666667   0.1666667   0.1666667), wk =   0.0027435
        k(   43) = (  -0.2777778   0.2777778   0.0555556), wk =   0.0082305
        k(   44) = (  -0.3888889   0.3888889  -0.0555556), wk =   0.0082305
        k(   45) = (   0.5000000  -0.5000000   0.8333333), wk =   0.0082305
        k(   46) = (   0.3888889  -0.3888889   0.7222222), wk =   0.0082305
        k(   47) = (   0.2777778  -0.2777778   0.6111111), wk =   0.0082305
        k(   48) = (   0.1666667  -0.1666667   0.5000000), wk =   0.0082305
        k(   49) = (  -0.1666667   0.3888889   0.1666667), wk =   0.0082305
        k(   50) = (  -0.2777778   0.5000000   0.0555556), wk =   0.0164609
        k(   51) = (   0.6111111  -0.3888889   0.9444444), wk =   0.0164609
        k(   52) = (   0.5000000  -0.2777778   0.8333333), wk =   0.0164609
        k(   53) = (   0.3888889  -0.1666667   0.7222222), wk =   0.0164609
        k(   54) = (   0.2777778  -0.0555556   0.6111111), wk =   0.0164609
        k(   55) = (  -0.1666667   0.6111111   0.1666667), wk =   0.0082305
        k(   56) = (   0.7222222  -0.2777778   1.0555556), wk =   0.0164609
        k(   57) = (   0.6111111  -0.1666667   0.9444444), wk =   0.0164609
        k(   58) = (   0.5000000  -0.0555556   0.8333333), wk =   0.0164609
        k(   59) = (   0.3888889   0.0555556   0.7222222), wk =   0.0164609
        k(   60) = (  -0.1666667  -1.1666667   0.1666667), wk =   0.0082305
        k(   61) = (  -0.2777778  -1.0555556   0.0555556), wk =   0.0164609
        k(   62) = (  -0.3888889  -0.9444444  -0.0555556), wk =   0.0164609
        k(   63) = (  -0.5000000  -0.8333333  -0.1666667), wk =   0.0082305
        k(   64) = (  -0.1666667  -0.9444444   0.1666667), wk =   0.0082305
        k(   65) = (  -0.2777778  -0.8333333   0.0555556), wk =   0.0164609
        k(   66) = (  -0.1666667  -0.7222222   0.1666667), wk =   0.0082305
        k(   67) = (  -0.2777778   0.2777778   0.2777778), wk =   0.0027435
        k(   68) = (  -0.3888889   0.3888889   0.1666667), wk =   0.0082305
        k(   69) = (   0.5000000  -0.5000000   1.0555556), wk =   0.0082305
        k(   70) = (   0.3888889  -0.3888889   0.9444444), wk =   0.0082305
        k(   71) = (   0.2777778  -0.2777778   0.8333333), wk =   0.0082305
        k(   72) = (  -0.2777778   0.5000000   0.2777778), wk =   0.0082305
        k(   73) = (   0.6111111  -0.3888889   1.1666667), wk =   0.0164609
        k(   74) = (   0.5000000  -0.2777778   1.0555556), wk =   0.0164609
        k(   75) = (   0.3888889  -0.1666667   0.9444444), wk =   0.0164609
        k(   76) = (  -0.2777778  -1.2777778   0.2777778), wk =   0.0082305
        k(   77) = (  -0.3888889  -1.1666667   0.1666667), wk =   0.0164609
        k(   78) = (  -0.5000000  -1.0555556   0.0555556), wk =   0.0082305
        k(   79) = (  -0.2777778  -1.0555556   0.2777778), wk =   0.0082305
        k(   80) = (  -0.3888889   0.3888889   0.3888889), wk =   0.0027435
        k(   81) = (   0.5000000  -0.5000000   1.2777778), wk =   0.0082305
        k(   82) = (   0.3888889  -0.3888889   1.1666667), wk =   0.0082305
        k(   83) = (  -0.3888889  -1.3888889   0.3888889), wk =   0.0082305
        k(   84) = (  -0.5000000  -1.2777778   0.2777778), wk =   0.0082305
        k(   85) = (   0.5000000  -0.5000000  -0.5000000), wk =   0.0013717

     Dense  grid:     1243 G-vectors     FFT dimensions: (  15,  15,  15)

     Estimated max dynamical RAM per process >      14.30 MB

     Check: negative core charge=   -0.000029

     Initial potential from superposition of free atoms

     starting charge       9.9999, renormalised to      10.0000

     negative rho (up, down):  1.043E-04 0.000E+00
     Starting wfcs are   12 randomized atomic wfcs

     total cpu time spent up to now is        0.5 secs

     Self-consistent Calculation

     iteration #  1     ecut=    20.00 Ry     beta= 0.70
     Davidson diagonalization with overlap
     ethr =  1.00E-02,  avg # of iterations =  2.3

     Threshold (ethr) on eigenvalues was too large:
     Diagonalizing with lowered threshold

     Davidson diagonalization with overlap
     c_bands:  5 eigenvalues not converged
     c_bands:  5 eigenvalues not converged
     ethr =  1.27E-05,  avg # of iterations =  8.6

     negative rho (up, down):  1.945E-04 0.000E+00

     total cpu time spent up to now is        2.0 secs

     total energy              =     -69.45508920 Ry
     estimated scf accuracy    <       0.00390160 Ry

     iteration #  2     ecut=    20.00 Ry     beta= 0.70
     Davidson diagonalization with overlap
     ethr =  3.90E-05,  avg # of iterations =  2.2

     negative rho (up, down):  2.191E-04 0.000E+00

     total cpu time spent up to now is        2.4 secs

     total energy              =     -69.45614446 Ry
     estimated scf accuracy    <       0.00045496 Ry

     iteration #  3     ecut=    20.00 Ry     beta= 0.70
     Davidson diagonalization with overlap
     ethr =  4.55E-06,  avg # of iterations =  2.2

     negative rho (up, down):  2.376E-04 0.000E+00

     total cpu time spent up to now is        2.9 secs

     total energy              =     -69.45622019 Ry
     estimated scf accuracy    <       0.00001415 Ry

     iteration #  4     ecut=    20.00 Ry     beta= 0.70
     Davidson diagonalization with overlap
     ethr =  1.42E-07,  avg # of iterations =  6.5

     negative rho (up, down):  2.377E-04 0.000E+00

     total cpu time spent up to now is        3.6 secs

     total energy              =     -69.45648469 Ry
     estimated scf accuracy    <       0.00000874 Ry

     iteration #  5     ecut=    20.00 Ry     beta= 0.70
     Davidson diagonalization with overlap
     ethr =  8.74E-08,  avg # of iterations =  1.5

     negative rho (up, down):  2.381E-04 0.000E+00

     total cpu time spent up to now is        4.0 secs

     total energy              =     -69.45648368 Ry
     estimated scf accuracy    <       0.00000244 Ry

     iteration #  6     ecut=    20.00 Ry     beta= 0.70
     Davidson diagonalization with overlap
     ethr =  2.44E-08,  avg # of iterations =  3.5

     negative rho (up, down):  2.382E-04 0.000E+00

     total cpu time spent up to now is        4.5 secs

     total energy              =     -69.45648472 Ry
     estimated scf accuracy    <       0.00000012 Ry

     iteration #  7     ecut=    20.00 Ry     beta= 0.70
     Davidson diagonalization with overlap
     ethr =  1.23E-09,  avg # of iterations =  4.9

     negative rho (up, down):  2.383E-04 0.000E+00

     total cpu time spent up to now is        5.1 secs

     End of self-consistent calculation

          k =-0.0556 0.0556 0.0556 (   159 PWs)   bands (ev):

     7.6911   7.6911  13.7648  13.7648  13.8057  13.8057  14.7835  14.7835
    16.5584  16.5584

          k =-0.1667 0.1667-0.0556 (   156 PWs)   bands (ev):

     8.3331   8.3331  13.6311  13.6311  13.9648  13.9648  14.9683  14.9683
    16.2897  16.2897

          k =-0.2778 0.2778-0.1667 (   150 PWs)   bands (ev):

     9.6381   9.6381  13.5435  13.5435  14.0143  14.0143  15.1909  15.1909
    16.2945  16.2945

          k =-0.3889 0.3889-0.2778 (   151 PWs)   bands (ev):

    10.5267  10.5267  13.7654  13.7654  14.6380  14.6380  14.8889  14.8889
    17.1931  17.1931

          k = 0.5000-0.5000 0.6111 (   152 PWs)   bands (ev):

    10.6355  10.6355  13.5926  13.5926  14.5963  14.5963  16.4909  16.4909
    18.0101  18.0101

          k = 0.3889-0.3889 0.5000 (   151 PWs)   bands (ev):

    10.6296  10.6296  13.6296  13.6296  14.6487  14.6487  15.9607  15.9607
    17.9884  17.9884

          k = 0.2778-0.2778 0.3889 (   152 PWs)   bands (ev):

    10.3458  10.3458  13.8256  13.8256  14.1039  14.1039  14.9973  14.9973
    16.9870  16.9870

          k = 0.1667-0.1667 0.2778 (   153 PWs)   bands (ev):

     9.1780   9.1780  13.4912  13.4912  14.0460  14.0460  15.1928  15.1928
    16.2095  16.2095

          k = 0.0556-0.0556 0.1667 (   158 PWs)   bands (ev):

     8.0193   8.0193  13.6671  13.6671  13.9303  13.9303  14.8732  14.8732
    16.3658  16.3658

          k =-0.0556 0.2778 0.0556 (   157 PWs)   bands (ev):

     8.6485   8.6485  13.3980  13.3980  14.1592  14.1592  15.1330  15.1330
    16.0544  16.0544

          k =-0.1667 0.3889-0.0556 (   152 PWs)   bands (ev):

     9.7534   9.7534  13.0649  13.0649  14.2160  14.2160  15.5065  15.5065
    16.0125  16.0125

          k =-0.2778 0.5000-0.1667 (   150 PWs)   bands (ev):

    10.9087  10.9087  13.3133  13.3133  13.8555  13.8555  15.2966  15.2966
    17.0939  17.0939

          k = 0.6111-0.3889 0.7222 (   153 PWs)   bands (ev):

    11.1715  11.1715  13.4505  13.4505  14.5375  14.5375  15.1851  15.1851
    18.0680  18.0680

          k = 0.5000-0.2778 0.6111 (   154 PWs)   bands (ev):

    11.1980  11.1980  13.4112  13.4112  14.7012  14.7012  15.3545  15.3545
    17.9420  17.9420

          k = 0.3889-0.1667 0.5000 (   149 PWs)   bands (ev):

    11.1340  11.1340  13.6104  13.6104  13.9535  13.9535  15.1125  15.1125
    17.0099  17.0099

          k = 0.2778-0.0556 0.3889 (   150 PWs)   bands (ev):

    10.2181  10.2181  13.1588  13.1588  14.0810  14.0810  15.4611  15.4611
    15.9686  15.9686

          k = 0.1667 0.0556 0.2778 (   156 PWs)   bands (ev):

     8.9336   8.9336  13.4166  13.4166  14.1105  14.1105  15.1923  15.1923
    16.0587  16.0587

          k =-0.0556 0.5000 0.0556 (   149 PWs)   bands (ev):

    10.4054  10.4054  12.5361  12.5361  14.4545  14.4545  16.0144  16.0144
    16.2959  16.2959

          k =-0.1667 0.6111-0.0556 (   148 PWs)   bands (ev):

    11.2297  11.2297  12.2599  12.2599  14.3591  14.3591  16.4286  16.4286
    17.1581  17.1581

          k = 0.7222-0.2778 0.8333 (   150 PWs)   bands (ev):

    11.6350  11.6350  12.6290  12.6290  14.1786  14.1786  16.1375  16.1375
    18.1947  18.1947

          k = 0.6111-0.1667 0.7222 (   151 PWs)   bands (ev):

    11.9225  11.9225  12.9253  12.9253  14.2385  14.2385  15.8069  15.8069
    17.9846  17.9846

          k = 0.5000-0.0556 0.6111 (   153 PWs)   bands (ev):

    12.2499  12.2499  13.1379  13.1379  13.5929  13.5929  15.6670  15.6670
    17.0930  17.0930

          k = 0.3889 0.0556 0.5000 (   149 PWs)   bands (ev):

    11.4934  11.4934  13.1379  13.1379  13.7303  13.7303  15.4868  15.4868
    16.4255  16.4255

          k = 0.2778 0.1667 0.3889 (   150 PWs)   bands (ev):

    10.2520  10.2520  13.4730  13.4730  14.0067  14.0067  15.1740  15.1740
    16.5127  16.5127

          k =-0.0556 0.7222 0.0556 (   149 PWs)   bands (ev):

    11.0793  11.0793  11.7278  11.7278  15.8570  15.8570  17.2616  17.2616
    17.7346  17.7346

          k = 0.8333-0.1667 0.9444 (   150 PWs)   bands (ev):

    11.1741  11.1741  11.6691  11.6691  15.9551  15.9551  17.4896  17.4896
    18.3911  18.3911

          k = 0.7222-0.0556 0.8333 (   151 PWs)   bands (ev):

    11.5362  11.5362  12.2056  12.2056  15.1505  15.1505  16.8649  16.8649
    18.3475  18.3475

          k = 0.6111 0.0556 0.7222 (   148 PWs)   bands (ev):

    12.0730  12.0730  12.8942  12.8942  14.1070  14.1070  16.1166  16.1166
    17.7713  17.7713

          k = 0.5000 0.1667 0.6111 (   153 PWs)   bands (ev):

    11.7111  11.7111  13.2444  13.2444  14.2665  14.2665  15.3226  15.3226
    17.5190  17.5190

          k = 0.3889 0.2778 0.5000 (   150 PWs)   bands (ev):

    10.8058  10.8058  13.6657  13.6657  14.6624  14.6624  15.0443  15.0443
    17.6233  17.6233

          k =-0.0556-1.0556 0.0556 (   150 PWs)   bands (ev):

    10.8188  10.8188  11.3274  11.3274  17.6242  17.6242  17.9694  17.9694
    18.8971  18.8971

          k =-0.1667-0.9444-0.0556 (   148 PWs)   bands (ev):

    11.0510  11.0510  11.5398  11.5398  16.5759  16.5759  17.6463  17.6463
    18.7368  18.7368

          k =-0.2778-0.8333-0.1667 (   151 PWs)   bands (ev):

    11.6090  11.6090  12.3416  12.3416  14.7319  14.7319  16.6002  16.6002
    18.3299  18.3299

          k =-0.3889-0.7222-0.2778 (   152 PWs)   bands (ev):

    11.5785  11.5785  13.1462  13.1462  14.4002  14.4002  15.4387  15.4387
    18.1547  18.1547

          k =-0.5000-0.6111-0.3889 (   156 PWs)   bands (ev):

    10.8285  10.8285  13.5395  13.5395  14.6073  14.6073  16.0445  16.0445
    18.1386  18.1386

          k =-0.0556-0.8333 0.0556 (   150 PWs)   bands (ev):

    10.9373  10.9373  11.4642  11.4642  16.9801  16.9801  17.7236  17.7236
    18.4465  18.4465

          k =-0.1667-0.7222-0.0556 (   150 PWs)   bands (ev):

    11.3217  11.3217  11.9177  11.9177  15.0696  15.0696  17.0370  17.0370
    17.8474  17.8474

          k =-0.2778-0.6111-0.1667 (   149 PWs)   bands (ev):

    11.4253  11.4253  13.0148  13.0148  13.8192  13.8192  15.6529  15.6529
    17.7800  17.7800

          k =-0.0556-0.6111 0.0556 (   151 PWs)   bands (ev):

    10.9930  10.9930  12.0968  12.0968  14.8598  14.8598  16.6154  16.6154
    16.9877  16.9877

          k =-0.1667-0.5000-0.0556 (   151 PWs)   bands (ev):

    10.6306  10.6306  12.6576  12.6576  14.1741  14.1741  15.8799  15.8799
    16.4615  16.4615

          k =-0.0556-0.3889 0.0556 (   156 PWs)   bands (ev):

     9.5042   9.5042  12.9938  12.9938  14.3619  14.3619  15.5571  15.5571
    15.8994  15.8994

          k =-0.1667 0.1667 0.1667 (   153 PWs)   bands (ev):

     8.6240   8.6240  13.6332  13.6332  13.9586  13.9586  15.0473  15.0473
    16.3120  16.3120

          k =-0.2778 0.2778 0.0556 (   153 PWs)   bands (ev):

     9.4773   9.4773  13.3565  13.3565  14.1037  14.1037  15.3126  15.3126
    15.9353  15.9353

          k =-0.3889 0.3889-0.0556 (   149 PWs)   bands (ev):

    10.8309  10.8309  13.1942  13.1942  13.9822  13.9822  15.3741  15.3741
    16.0460  16.0460

          k = 0.5000-0.5000 0.8333 (   153 PWs)   bands (ev):

    11.3981  11.3981  13.4969  13.4969  14.2962  14.2962  15.0586  15.0586
    17.1409  17.1409

          k = 0.3889-0.3889 0.7222 (   155 PWs)   bands (ev):

    11.3331  11.3331  13.3184  13.3184  14.6976  14.6976  15.3197  15.3197
    18.0716  18.0716

          k = 0.2778-0.2778 0.6111 (   150 PWs)   bands (ev):

    11.2501  11.2501  13.3939  13.3939  14.0662  14.0662  15.2794  15.2794
    18.1857  18.1857

          k = 0.1667-0.1667 0.5000 (   150 PWs)   bands (ev):

    10.7318  10.7318  12.8885  12.8885  14.0297  14.0297  15.5310  15.5310
    16.9883  16.9883

          k =-0.1667 0.3889 0.1667 (   150 PWs)   bands (ev):

     9.9295   9.9295  13.2183  13.2183  14.1091  14.1091  15.3193  15.3193
    16.3639  16.3639

          k =-0.2778 0.5000 0.0556 (   150 PWs)   bands (ev):

    11.0291  11.0291  12.8801  12.8801  13.8828  13.8828  15.7247  15.7247
    16.4152  16.4152

          k = 0.6111-0.3889 0.9444 (   149 PWs)   bands (ev):

    12.0695  12.0695  13.0171  13.0171  13.3676  13.3676  15.9109  15.9109
    17.0007  17.0007

          k = 0.5000-0.2778 0.8333 (   152 PWs)   bands (ev):

    12.0806  12.0806  12.8988  12.8988  14.0758  14.0758  15.7050  15.7050
    17.8660  17.8660

          k = 0.3889-0.1667 0.7222 (   151 PWs)   bands (ev):

    11.9210  11.9210  12.9413  12.9413  13.8771  13.8771  15.8783  15.8783
    17.9680  17.9680

          k = 0.2778-0.0556 0.6111 (   147 PWs)   bands (ev):

    11.6411  11.6411  12.5819  12.5819  13.7761  13.7761  16.2204  16.2204
    17.0619  17.0619

          k =-0.1667 0.6111 0.1667 (   147 PWs)   bands (ev):

    11.2970  11.2970  12.5371  12.5371  14.1306  14.1306  15.9462  15.9462
    17.7940  17.7940

          k = 0.7222-0.2778 1.0556 (   151 PWs)   bands (ev):

    11.7588  11.7588  12.2905  12.2905  14.1754  14.1754  16.7603  16.7603
    17.7137  17.7137

          k = 0.6111-0.1667 0.9444 (   155 PWs)   bands (ev):

    12.1162  12.1162  12.6012  12.6012  13.8841  13.8841  16.5338  16.5338
    18.2164  18.2164

          k = 0.5000-0.0556 0.8333 (   151 PWs)   bands (ev):

    12.3771  12.3771  12.9450  12.9450  13.4927  13.4927  16.2020  16.2020
    18.2061  18.2061

          k = 0.3889 0.0556 0.7222 (   150 PWs)   bands (ev):

    12.2906  12.2906  12.7635  12.7635  13.4373  13.4373  16.3547  16.3547
    17.6295  17.6295

          k =-0.1667-1.1667 0.1667 (   152 PWs)   bands (ev):

    11.3145  11.3145  11.9212  11.9212  15.4975  15.4975  16.9861  16.9861
    18.4815  18.4815

          k =-0.2778-1.0556 0.0556 (   154 PWs)   bands (ev):

    11.4692  11.4692  11.9534  11.9534  15.3644  15.3644  17.1001  17.1001
    18.6488  18.6488

          k =-0.3889-0.9444-0.0556 (   152 PWs)   bands (ev):

    11.9520  11.9520  12.5352  12.5352  14.2593  14.2593  16.4848  16.4848
    18.6112  18.6112

          k =-0.5000-0.8333-0.1667 (   150 PWs)   bands (ev):

    12.4470  12.4470  12.6408  12.6408  13.8103  13.8103  16.0342  16.0342
    18.0782  18.0782

          k =-0.1667-0.9444 0.1667 (   150 PWs)   bands (ev):

    11.2109  11.2109  11.7841  11.7841  16.0385  16.0385  17.3179  17.3179
    18.5301  18.5301

          k =-0.2778-0.8333 0.0556 (   151 PWs)   bands (ev):

    11.6028  11.6028  12.0670  12.0670  14.8468  14.8468  17.0748  17.0748
    18.2768  18.2768

          k =-0.1667-0.7222 0.1667 (   149 PWs)   bands (ev):

    11.4211  11.4211  12.1890  12.1890  14.7195  14.7195  16.4732  16.4732
    18.2823  18.2823

          k =-0.2778 0.2778 0.2778 (   150 PWs)   bands (ev):

     9.9393   9.9393  13.8488  13.8488  13.9121  13.9121  15.0889  15.0889
    16.6565  16.6565

          k =-0.3889 0.3889 0.1667 (   150 PWs)   bands (ev):

    10.6717  10.6717  13.6512  13.6512  14.0075  14.0075  15.0530  15.0530
    16.6143  16.6143

          k = 0.5000-0.5000 1.0556 (   150 PWs)   bands (ev):

    11.9083  11.9083  13.2744  13.2744  13.6798  13.6798  15.3867  15.3867
    16.6557  16.6557

          k = 0.3889-0.3889 0.9444 (   154 PWs)   bands (ev):

    12.1726  12.1726  13.1123  13.1123  13.9081  13.9081  15.7741  15.7741
    17.3605  17.3605

          k = 0.2778-0.2778 0.8333 (   154 PWs)   bands (ev):

    11.7168  11.7168  12.7092  12.7092  14.4810  14.4810  16.1272  16.1272
    18.2077  18.2077

          k =-0.2778 0.5000 0.2778 (   150 PWs)   bands (ev):

    10.8072  10.8072  13.7135  13.7135  14.0896  14.0896  15.0307  15.0307
    17.6530  17.6530

          k = 0.6111-0.3889 1.1667 (   151 PWs)   bands (ev):

    11.5796  11.5796  13.3261  13.3261  13.8437  13.8437  15.4449  15.4449
    17.5730  17.5730

          k = 0.5000-0.2778 1.0556 (   152 PWs)   bands (ev):

    12.5227  12.5227  12.8271  12.8271  13.5398  13.5398  16.0405  16.0405
    17.6440  17.6440

          k = 0.3889-0.1667 0.9444 (   152 PWs)   bands (ev):

    12.0015  12.0015  12.6554  12.6554  14.2184  14.2184  16.3803  16.3803
    18.2429  18.2429

          k =-0.2778-1.2778 0.2778 (   149 PWs)   bands (ev):

    11.5755  11.5755  12.9931  12.9931  14.2161  14.2161  15.6739  15.6739
    18.3208  18.3208

          k =-0.3889-1.1667 0.1667 (   152 PWs)   bands (ev):

    12.0424  12.0424  12.7088  12.7088  14.0409  14.0409  16.2320  16.2320
    18.1478  18.1478

          k =-0.5000-1.0556 0.0556 (   152 PWs)   bands (ev):

    12.1986  12.1986  13.1564  13.1564  13.4468  13.4468  16.1923  16.1923
    18.5999  18.5999

          k =-0.2778-1.0556 0.2778 (   148 PWs)   bands (ev):

    11.7306  11.7306  12.5875  12.5875  14.7026  14.7026  16.4828  16.4828
    18.0174  18.0174

          k =-0.3889 0.3889 0.3889 (   147 PWs)   bands (ev):

    10.5009  10.5009  13.6909  13.6909  14.7325  14.7325  15.6001  15.6001
    17.5602  17.5602

          k = 0.5000-0.5000 1.2778 (   152 PWs)   bands (ev):

    10.9337  10.9337  13.5823  13.5823  14.6836  14.6836  15.4022  15.4022
    17.6666  17.6666

          k = 0.3889-0.3889 1.1667 (   153 PWs)   bands (ev):

    11.8132  11.8132  13.1289  13.1289  14.3720  14.3720  15.4540  15.4540
    17.7173  17.7173

          k =-0.3889-1.3889 0.3889 (   155 PWs)   bands (ev):

    10.9154  10.9154  13.5216  13.5216  14.6423  14.6423  15.6700  15.6700
    18.2192  18.2192

          k =-0.5000-1.2778 0.2778 (   152 PWs)   bands (ev):

    11.5906  11.5906  13.1475  13.1475  14.5509  14.5509  15.3659  15.3659
    18.0288  18.0288

          k = 0.5000-0.5000-0.5000 (   156 PWs)   bands (ev):

    10.5335  10.5335  13.5809  13.5809  14.5824  14.5824  17.3249  17.3249
    17.8887  17.8887

     highest occupied level (ev):    18.8971

!    total energy              =     -69.45648482 Ry
     estimated scf accuracy    <          1.1E-09 Ry

     The total energy is the sum of the following terms:
     one-electron contribution =      17.64949410 Ry
     hartree contribution      =       3.67962062 Ry
     xc contribution           =     -28.57580205 Ry
     ewald contribution        =     -62.20979750 Ry

     convergence has been achieved in   7 iterations

     negative rho (up, down):  2.383E-04 0.000E+00

     Forces acting on atoms (cartesian axes, Ry/au):

     atom    1 type  1   force =     0.00000000    0.00000000    0.00000000

     Total force =     0.000000     Total SCF correction =     0.000000


     Computing stress (Cartesian axis) and pressure


     negative rho (up, down):  2.383E-04 0.000E+00
          total   stress  (Ry/bohr**3)                   (kbar)     P=      121.57
   0.00082640   0.00000000  -0.00000000          121.57        0.00       -0.00
   0.00000000   0.00082640   0.00000000            0.00      121.57        0.00
  -0.00000000   0.00000000   0.00082640           -0.00        0.00      121.57


     Writing all to output data dir ./platinum.save/ :
     XML data file, charge density, pseudopotentials, collected wavefunctions

     init_run     :      0.31s CPU      0.36s WALL (       1 calls)
     electrons    :      4.12s CPU      4.66s WALL (       1 calls)
     forces       :      0.08s CPU      0.08s WALL (       1 calls)
     stress       :      0.28s CPU      0.28s WALL (       1 calls)

     Called by init_run:
     wfcinit      :      0.12s CPU      0.16s WALL (       1 calls)
     potinit      :      0.01s CPU      0.01s WALL (       1 calls)
     hinit0       :      0.17s CPU      0.18s WALL (       1 calls)

     Called by electrons:
     c_bands      :      3.42s CPU      3.91s WALL (       8 calls)
     sum_band     :      0.62s CPU      0.67s WALL (       8 calls)
     v_of_rho     :      0.00s CPU      0.00s WALL (       8 calls)
     newd         :      0.09s CPU      0.09s WALL (       8 calls)
     mix_rho      :      0.00s CPU      0.00s WALL (       8 calls)

     Called by c_bands:
     init_us_2    :      0.06s CPU      0.06s WALL (    1615 calls)
     cegterg      :      3.22s CPU      3.68s WALL (     681 calls)

     Called by *egterg:
     cdiaghg      :      0.22s CPU      0.25s WALL (    3296 calls)
     h_psi        :      1.89s CPU      2.18s WALL (    3467 calls)
     s_psi        :      0.29s CPU      0.34s WALL (    3467 calls)
     g_psi        :      0.03s CPU      0.03s WALL (    2701 calls)

     Called by h_psi:
     h_psi:calbec :      0.23s CPU      0.27s WALL (    3467 calls)
     vloc_psi     :      1.32s CPU      1.53s WALL (    3467 calls)
     add_vuspsi   :      0.29s CPU      0.34s WALL (    3467 calls)

     General routines
     calbec       :      0.32s CPU      0.37s WALL (    4572 calls)
     fft          :      0.02s CPU      0.03s WALL (      89 calls)
     ffts         :      0.00s CPU      0.00s WALL (      32 calls)
     fftw         :      0.99s CPU      1.14s WALL (  115892 calls)

     Parallel routines

     PWSCF        :      4.88s CPU      5.50s WALL


   This run was terminated on:  13:52:11   4Nov2024            

=------------------------------------------------------------------------------=
   JOB DONE.
=------------------------------------------------------------------------------=
