LAMMPS (29 Aug 2024)
units                  real
atom_style	       full
bond_style	       harmonic
angle_style	       harmonic
boundary	       p p p

neighbor 2.0 bin
neigh_modify every 1 delay 0 check yes

# ============= read data and parameters files

pair_style            lj/cut 10.0
pair_modify           shift yes mix arithmetic

read_data             equilb_200ps.data
Reading data file ...
  orthogonal box = (-0.1495 -0.193001 -38.75) to (32.8505 32.806999 41.25)
  1 by 2 by 4 MPI processor grid
  reading atoms ...
  4369 atoms
  reading velocities ...
  4369 velocities
  scanning bonds ...
  4 = max bonds/atom
  scanning angles ...
  6 = max angles/atom
  scanning dihedrals ...
  8 = max dihedrals/atom
  scanning impropers ...
  2 = max impropers/atom
  orthogonal box = (-0.1495 -0.193001 -38.75) to (32.8505 32.806999 41.25)
  1 by 2 by 4 MPI processor grid
  reading bonds ...
  3937 bonds
  reading angles ...
  4687 angles
  reading dihedrals ...
  6951 dihedrals
  reading impropers ...
  1152 impropers
Finding 1-2 1-3 1-4 neighbors ...
  special bond factors lj:    0        0        0       
  special bond factors coul:  0        0        0       
     4 = max # of 1-2 neighbors
     6 = max # of 1-3 neighbors
    18 = max # of 1-4 neighbors
    18 = max # of special neighbors
  special bonds CPU = 0.001 seconds
  read_data CPU = 0.086 seconds

pair_coeff  1  1      0.0859  3.3997
pair_coeff  2  2      0.0659  3.5000
pair_coeff  3  3      0.0859  3.3997
pair_coeff  4  4      0.0859  3.3997
pair_coeff  5  5      0.0299  2.5000
pair_coeff  6  6      0.0000  1.0000
pair_coeff  7  7      0.1521  3.1507

bond_coeff     1      938.0    1.42
bond_coeff     2      661.2    1.10
bond_coeff     3      938.0    1.42
bond_coeff     4      938.0    1.42
bond_coeff     5      450.0    0.9572

angle_coeff    1      126      120.0
angle_coeff    2      126      120.0
angle_coeff    3      126      120.0
angle_coeff    4      78.8     109.5
angle_coeff    5      55.0     104.52


group  water     type 6  7
2985 atoms in group water
group  memb      type 1
438 atoms in group memb
group  CG1       type 3
448 atoms in group CG1
group  CG2       type 4
448 atoms in group CG2
group  CG3       type 3 4
896 atoms in group CG3


compute 9 all pe/atom

dump dump_1 all custom 1000 dump.lammpstrj id type x y z

timestep 1.0
thermo_style custom step time cpu temp pe ke etotal press vol
thermo 100

fix                    myshk1  water shake 1.0e-5 200 0 b 5 a 5
Finding SHAKE clusters ...
       0 = # of size 2 clusters
       0 = # of size 3 clusters
       0 = # of size 4 clusters
     995 = # of frozen angles
  find clusters CPU = 0.000 seconds

fix                    freeze memb setforce 0.0 0.0 0.0

fix                    pistonkeep CG3  setforce  0.0   0.0    NULL
fix                    myforce1   CG1  aveforce  NULL  NULL  -1.439     #P=250 bars
fix                    freeze1    CG2  setforce 0.0 0.0 0.0

fix                    mynvt  all nvt temp 300 300 100.0
run                    1000000

CITE-CITE-CITE-CITE-CITE-CITE-CITE-CITE-CITE-CITE-CITE-CITE-CITE

Your simulation uses code contributions which should be cited:

- Type Label Framework: https://doi.org/10.1021/acs.jpcb.3c08419

@Article{Gissinger24,
 author = {Jacob R. Gissinger, Ilia Nikiforov, Yaser Afshar, Brendon Waters, Moon-ki Choi, Daniel S. Karls, Alexander Stukowski, Wonpil Im, Hendrik Heinz, Axel Kohlmeyer, and Ellad B. Tadmor},
 title = {Type Label Framework for Bonded Force Fields in LAMMPS},
 journal = {J. Phys. Chem. B},
 year =    2024,
 volume =  128,
 number =  13,
 pages =   {3282–-3297}
}

CITE-CITE-CITE-CITE-CITE-CITE-CITE-CITE-CITE-CITE-CITE-CITE-CITE

Generated 21 of 21 mixed pair_coeff terms from arithmetic mixing rule
WARNING: Dihedrals are defined but no dihedral style is set (../force.cpp:207)
WARNING: Likewise 1-4 special neighbor interactions != 1.0 (../force.cpp:209)
WARNING: Impropers are defined but no improper style is set (../force.cpp:212)
Neighbor list info ...
  update: every = 1 steps, delay = 0 steps, check = yes
  max neighbors/atom: 2000, page size: 100000
  master list distance cutoff = 12
  ghost atom cutoff = 12
  binsize = 6, bins = 6 6 14
  1 neighbor lists, perpetual/occasional/extra = 1 0 0
  (1) pair lj/cut, perpetual
      attributes: half, newton on
      pair build: half/bin/newton
      stencil: half/bin/3d
      bin: standard
Per MPI rank memory allocation (min/avg/max) = 13.72 | 14.32 | 15.25 Mbytes
   Step          Time           CPU            Temp          PotEng         KinEng         TotEng         Press          Volume    
         0   0              0              301.03661      8476.991       3026.7041      11503.695      61294.04       87120        
       100   100            0.43280697     300.55686      8585.4478      3021.8805      11607.328      61711.906      87120        
       200   200            0.88396953     319.53987      8525.1919      3212.7408      11737.933      61713.646      87120        
       300   300            1.3376831      326.14973      8628.2289      3279.1982      11907.427      62363.522      87120        
       400   400            1.7894329      330.68229      8723.4455      3324.7698      12048.215      62999.097      87120        
       500   500            2.2654098      337.94377      8758.5696      3397.7787      12156.348      63400.645      87120        
       600   600            2.7605762      339.27463      8825.9179      3411.1595      12237.077      63910.086      87120        
       700   700            3.2925881      334.20855      8954.7889      3360.2238      12315.013      64582.449      87120        
       800   800            3.8547591      339.03206      8974.6745      3408.7206      12383.395      64902.987      87120        
       900   900            4.4654122      334.44491      9075.4613      3362.6002      12438.061      65459.545      87120        
      1000   1000           5.1180885      333.5272       9111.0187      3353.3733      12464.392      65901.059      87120        
      1100   1100           5.7660532      324.43712      9264.3473      3261.9791      12526.326      66780.917      87120        
      1200   1200           6.4524453      315.78637      9480.4521      3175.0022      12655.454      67880.586      87120        
      1300   1300           7.170369       302.91839      9818.9455      3045.624       12864.57       69375.078      87120        
      1400   1400           7.956386       298.18834      10160.038      2998.0668      13158.105      70909.494      87120        
      1500   1500           8.7675427      286.24581      10659.847      2877.9933      13537.841      72934.95       87120        
      1600   1600           9.6337632      295.6697       11026.434      2972.7437      13999.177      74468.495      87120        
      1700   1700           10.556826      305.86031      11254.557      3075.2028      14329.759      75413.741      87120        
      1800   1800           11.475759      317.69816      11206.377      3194.2238      14400.601      75295.224      87120        
      1900   1900           12.408739      306.73357      11084.141      3083.9828      14168.124      74694.305      87120        
      2000   2000           13.335323      302.07857      10741.68       3037.1802      13778.86       73328.26       87120        
      2100   2100           14.212625      299.79592      10341.692      3014.2298      13355.921      71678.886      87120        
      2200   2200           15.09586       293.14634      9980.3249      2947.3731      12927.698      70082.858      87120        
      2300   2300           15.960843      291.83909      9679.9363      2934.2297      12614.166      68725.402      87120        
      2400   2400           16.803169      294.04524      9447.9527      2956.411       12404.364      67643.101      87120        
      2500   2500           17.625665      298.0602       9244.4796      2996.7784      12241.258      66674.707      87120        
      2600   2600           18.414042      296.07509      9095.5406      2976.8196      12072.36       65854.686      87120        
      2700   2700           19.173527      290.35293      9049.8115      2919.2875      11969.099      65443.877      87120        
      2800   2800           19.919679      292.93547      9023.1011      2945.253       11968.354      65205.799      87120        
      2900   2900           20.659158      296.87855      9008.1122      2984.8978      11993.01       65029.278      87120        
      3000   3000           21.401581      302.80413      8987.4789      3044.4752      12031.954      64889.324      87120        
      3100   3100           22.123293      304.80149      8980.1247      3064.5571      12044.682      64856.138      87120        
      3200   3200           22.852929      306.15547      8985.5213      3078.1704      12063.692      64944.302      87120        
      3300   3300           23.574579      301.44159      9036.451       3030.7759      12067.227      65080.917      87120        
      3400   3400           24.309202      301.28194      9022.1405      3029.1706      12051.311      65016.819      87120        
      3500   3500           25.030965      296.49956      9102.5542      2981.0873      12083.641      65357.017      87120        
      3600   3600           25.764496      301.82097      9112.7915      3034.5902      12147.382      65492.737      87120        
      3700   3700           26.519195      303.35379      9170.4821      3050.0017      12220.484      65835.223      87120        
      3800   3800           27.283169      305.07264      9270.7483      3067.2834      12338.032      66415.66       87120        
      3900   3900           28.063074      307.95622      9380.8857      3096.2757      12477.161      67056.782      87120        
      4000   4000           28.851477      301.41569      9568.1181      3030.5154      12598.634      67916.507      87120        
      4100   4100           29.675334      302.67734      9697.7878      3043.2004      12740.988      68495.407      87120        
      4200   4200           30.51771       296.7898       9883.3976      2984.0055      12867.403      69282.627      87120        
      4300   4300           31.384542      295.86725      10036.996      2974.7299      13011.726      70000.149      87120        
      4400   4400           32.257113      299.42269      10166.796      3010.4773      13177.274      70683.781      87120        
      4500   4500           33.136888      305.4327       10241.438      3070.9036      13312.342      70984.983      87120        
      4600   4600           34.015232      300.1501       10356.386      3017.7909      13374.177      71333.519      87120        
      4700   4700           34.923086      301.43972      10283.134      3030.757       13313.891      71113.821      87120        
      4800   4800           35.826232      296.50373      10216.816      2981.1293      13197.945      70838.622      87120        
      4900   4900           36.705153      297.76912      10116.271      2993.8518      13110.123      70427.826      87120        
      5000   5000           37.583527      299.52784      9978.347       3011.5344      12989.881      69833.543      87120        
      5100   5100           38.422234      303.04148      9762.3968      3046.8616      12809.258      68940.206      87120        
      5200   5200           39.267709      294.16044      9621.1376      2957.5691      12578.707      68235.681      87120        
      5300   5300           40.108392      289.88835      9549.0511      2914.6164      12463.668      67774.173      87120        
      5400   5400           40.932365      296.64666      9421.6873      2982.5663      12404.254      67218.631      87120        
      5500   5500           41.728129      301.71323      9304.3281      3033.507       12337.835      66756.122      87120        
      5600   5600           42.520577      297.29119      9295.3814      2989.0466      12284.428      66641.837      87120        
      5700   5700           43.281346      297.70774      9256.345       2993.2347      12249.58       66387.977      87120        
      5800   5800           44.051298      298.64494      9228.6589      3002.6576      12231.316      66185.355      87120        
      5900   5900           44.819236      295.07024      9261.8199      2966.7166      12228.536      66212.078      87120        
      6000   6000           45.581884      301.2456       9225.5361      3028.8053      12254.341      66066.808      87120        
      6100   6100           46.334786      299.52696      9279.1096      3011.5257      12290.635      66309.73       87120        
      6200   6200           47.10913       308.75599      9236.4751      3104.3168      12340.792      66267.362      87120        
      6300   6300           47.874874      294.18915      9336.3096      2957.8578      12294.167      66720.806      87120        
      6400   6400           48.647299      296.9115       9398.391       2985.229       12383.62       66959.718      87120        
      6500   6500           49.414875      307.30317      9442.8845      3089.7097      12532.594      67129.755      87120        
      6600   6600           50.208034      304.90516      9531.6234      3065.5995      12597.223      67554.726      87120        
      6700   6700           50.997995      302.35658      9570.2634      3039.9754      12610.239      67846.212      87120        
      6800   6800           51.816419      303.35454      9630.9792      3050.0091      12680.988      68222.343      87120        
      6900   6900           52.661418      301.47197      9681.7964      3031.0813      12712.878      68453.98       87120        
      7000   7000           53.510512      299.93287      9734.6789      3015.6068      12750.286      68643.935      87120        
      7100   7100           54.356193      297.92207      9837.3791      2995.3897      12832.769      69077.665      87120        
      7200   7200           55.24091       298.84691      9897.3913      3004.6882      12902.08       69363.92       87120        
      7300   7300           56.120468      298.36698      9958.1325      2999.8628      12957.995      69610.65       87120        
      7400   7400           56.985456      304.05616      9976.0951      3057.0635      13033.159      69717.262      87120        
      7500   7500           57.848431      309.79316      9934.6789      3114.7448      13049.424      69550.306      87120        
      7600   7600           58.704108      303.29119      9848.6594      3049.3722      12898.032      69197.96       87120        
      7700   7700           59.55453       295.6463       9798.7925      2972.5084      12771.301      68935.409      87120        
      7800   7800           60.397927      296.11912      9753.3106      2977.2623      12730.573      68745.193      87120        
      7900   7900           61.247573      312.86762      9610.4441      3145.6563      12756.1        68261.32       87120        
      8000   8000           62.086782      302.36763      9622.5657      3040.0865      12662.652      68198.552      87120        
      8100   8100           62.908118      300.30209      9501.958       3019.319       12521.277      67685.11       87120        
      8200   8200           63.731195      293.05448      9477.146       2946.4495      12423.596      67545.82       87120        
      8300   8300           64.5541        299.33492      9523.5802      3009.5948      12533.175      67701.77       87120        
      8400   8400           65.361764      302.44348      9512.5865      3040.8492      12553.436      67644.234      87120        
      8500   8500           66.166167      300.98712      9483.508       3026.2064      12509.714      67470.616      87120        
      8600   8600           66.984724      304.46886      9438.2918      3061.2128      12499.505      67270.712      87120        
      8700   8700           67.794041      301.86389      9435.3149      3035.0217      12470.337      67237.5        87120        
      8800   8800           68.599059      299.73954      9380.9552      3013.663       12394.618      67077.982      87120        
      8900   8900           69.402715      290.88574      9477.3766      2924.6444      12402.021      67389.753      87120        
      9000   9000           70.208239      302.5304       9470.0802      3041.723       12511.803      67458.479      87120        
      9100   9100           71.002292      298.71304      9584.6393      3003.3422      12587.982      67901.471      87120        
      9200   9200           71.822365      309.61093      9529.0708      3112.9126      12641.983      67787.583      87120        
      9300   9300           72.651436      298.99698      9584.1264      3006.1971      12590.324      67987.208      87120        
      9400   9400           73.491445      302.42421      9548.5987      3040.6554      12589.254      67883.354      87120        
      9500   9500           74.33109       295.2546       9662.2558      2968.5702      12630.826      68285.827      87120        
      9600   9600           75.169841      302.52549      9666.8675      3041.6737      12708.541      68430.52       87120        
      9700   9700           76.112206      302.96812      9700.2834      3046.124       12746.407      68573.062      87120        
      9800   9800           77.040175      301.97103      9721.8116      3036.0989      12757.911      68625.759      87120        
      9900   9900           78.049295      303.68789      9698.6093      3053.3608      12751.97       68526.793      87120        
     10000   10000          79.045823      296.96569      9760.6647      2985.7739      12746.439      68771.516      87120        
     10100   10100          79.874381      293.8434       9785.0743      2954.3815      12739.456      68851.672      87120        
     10200   10200          80.761841      298.161        9748.6727      2997.7919      12746.465      68697.368      87120        
     10300   10300          81.610944      306.60763      9736.1069      3082.7166      12818.823      68591.026      87120        
     10400   10400          82.487883      305.99442      9694.9164      3076.5512      12771.468      68497.251      87120        
     10500   10500          83.335548      303.97341      9587.5702      3056.2314      12643.802      68144.543      87120        
     10600   10600          84.195101      300.00022      9554.7385      3016.2839      12571.022      68007.035      87120        
     10700   10700          85.030817      297.19273      9565.2672      2988.0567      12553.324      67972.045      87120        
     10800   10800          85.889314      308.4723       9521.2472      3101.4645      12622.712      67718.489      87120        
     10900   10900          86.744799      300.20876      9564.9548      3018.3806      12583.335      67768.539      87120        
     11000   11000          87.571686      302.74268      9517.9902      3043.8574      12561.848      67705.03       87120        
     11100   11100          88.395705      294.3077       9586.1934      2959.0497      12545.243      68018.143      87120        
     11200   11200          89.221494      304.04293      9556.1634      3056.9304      12613.094      67954.946      87120        
     11300   11300          90.056488      308.66915      9600.6547      3103.4437      12704.098      68032.268      87120        
     11400   11400          90.89643       302.66058      9610.4938      3043.0318      12653.526      68022.661      87120        
     11500   11500          91.736028      302.33238      9586.3986      3039.7321      12626.131      67950.529      87120        
     11600   11600          92.599525      300.06416      9619.7896      3016.9268      12636.716      68113.375      87120        
     11700   11700          93.468916      301.69234      9628.3617      3033.297       12661.659      68132.963      87120        
     11800   11800          94.291803      300.94535      9649.0921      3025.7865      12674.879      68228.734      87120        
     11900   11900          95.169148      295.93593      9649.2485      2975.4204      12624.669      68287.88       87120        
     12000   12000          96.140008      295.46925      9629.711       2970.7283      12600.439      68228.486      87120        
     12100   12100          97.048367      302.02556      9595.4196      3036.6472      12632.067      68049.428      87120        
     12200   12200          98.003156      295.47188      9703.7449      2970.7547      12674.5        68326.392      87120        
     12300   12300          98.869248      311.60476      9636.4716      3132.9591      12769.431      68217.101      87120        
     12400   12400          99.74173       300.65227      9693.3951      3022.8398      12716.235      68479.676      87120        
     12500   12500          100.59401      302.45593      9589.5732      3040.9743      12630.548      68101.48       87120        
     12600   12600          101.44996      293.71365      9636.9389      2953.0771      12590.016      68180.868      87120        
     12700   12700          102.29877      302.29719      9583.1636      3039.3782      12622.542      67968.281      87120        
     12800   12800          103.16296      299.06207      9626.6538      3006.8515      12633.505      68068.444      87120        
     12900   12900          104.02051      297.57359      9640.0684      2991.8859      12631.954      68233.834      87120        
     13000   13000          104.8719       302.45426      9601.7725      3040.9575      12642.73       68148.397      87120        
     13100   13100          105.69467      298.86866      9641.4289      3004.9069      12646.336      68308.294      87120        
     13200   13200          106.52509      306.68501      9604.3874      3083.4947      12687.882      68080.482      87120        
     13300   13300          107.36783      298.21396      9697.2726      2998.3243      12695.597      68362.238      87120        
     13400   13400          108.22145      294.03682      9666.1824      2956.3262      12622.509      68288.163      87120        
     13500   13500          109.04976      293.79937      9615.7516      2953.9389      12569.691      68130.75       87120        
     13600   13600          109.88802      300.42719      9627.9309      3020.5768      12648.508      68140.661      87120        
     13700   13700          110.71058      304.49606      9636.305       3061.4863      12697.791      68172.665      87120        
     13800   13800          111.55327      296.29455      9667.3603      2979.0261      12646.386      68274.928      87120        
     13900   13900          112.38447      296.26452      9597.2425      2978.7241      12575.967      67984.139      87120        
     14000   14000          113.21366      301.35809      9570.9164      3029.9363      12600.853      67916.044      87120        
     14100   14100          114.03826      309.82471      9630.2387      3115.062       12745.301      68215.128      87120        
     14200   14200          114.86931      302.55227      9679.3436      3041.9429      12721.286      68358.511      87120        
     14300   14300          115.6985       299.00948      9624.6179      3006.3227      12630.941      68185.424      87120        
     14400   14400          116.5564       296.29142      9652.5386      2978.9946      12631.533      68212.97       87120        
     14500   14500          117.38467      305.53418      9598.7528      3071.9238      12670.677      68011.942      87120        
     14600   14600          118.23026      297.67528      9673.9663      2992.9083      12666.875      68232.806      87120        
     14700   14700          119.06146      299.51125      9653.6012      3011.3677      12664.969      68169.154      87120        
     14800   14800          119.87933      301.92434      9608.8859      3035.6295      12644.515      68062.357      87120        
     14900   14900          120.71413      290.2266       9615.6463      2918.0173      12533.664      68085.941      87120        
     15000   15000          121.55719      295.32818      9612.9603      2969.31        12582.27       68062.898      87120        
     15100   15100          122.37394      300.73274      9648.2924      3023.6489      12671.941      68206.484      87120        
     15200   15200          123.19833      299.0589       9710.7093      3006.8196      12717.529      68439.892      87120        
     15300   15300          124.05015      304.0073       9643.2593      3056.5722      12699.831      68191.712      87120        
     15400   15400          124.86005      292.71827      9691.6911      2943.0692      12634.76       68346.002      87120        
     15500   15500          125.66628      301.43094      9619.539       3030.6687      12650.208      68164.636      87120        
     15600   15600          126.4972       299.20397      9641.6226      3008.2782      12649.901      68180.071      87120        
     15700   15700          127.31681      302.53266      9617.4691      3041.7458      12659.215      68047.735      87120        
     15800   15800          128.1497       298.40834      9620.0309      3000.2787      12620.31       68030.973      87120        
     15900   15900          128.97763      289.37857      9605.4408      2909.4909      12514.932      67936.724      87120        
     16000   16000          129.80909      302.39812      9541.8571      3040.393       12582.25       67825.192      87120        
     16100   16100          130.61809      300.64292      9642.4117      3022.7458      12665.157      68207.473      87120        
     16200   16200          131.43928      304.96334      9606.2272      3066.1844      12672.412      68073.501      87120        
     16300   16300          132.27024      303.91674      9568.9901      3055.6616      12624.652      67913.669      87120        
     16400   16400          133.09367      298.2199       9633.4769      2998.3841      12631.861      68128.822      87120        
     16500   16500          133.93393      299.05256      9654.7821      3006.7559      12661.538      68200.931      87120        
     16600   16600          134.76738      304.73194      9600.6814      3063.8579      12664.539      68037.986      87120        
     16700   16700          135.58729      294.87722      9610.507       2964.7759      12575.283      68075.1        87120        
     16800   16800          136.43025      289.17746      9580.6057      2907.469       12488.075      67919.202      87120        
     16900   16900          137.27086      298.39054      9562.9968      3000.0997      12563.097      67889.018      87120        
     17000   17000          138.10132      298.33891      9616.256       2999.5807      12615.837      68039.706      87120        
     17100   17100          138.92476      304.45534      9584.2017      3061.0769      12645.279      67990.071      87120        
     17200   17200          139.75619      298.76058      9597.7683      3003.8202      12601.589      68014.704      87120        
     17300   17300          140.58207      293.65313      9583.679       2952.4685      12536.148      68035.809      87120        
     17400   17400          141.40071      295.72769      9599.8157      2973.3267      12573.142      68052.768      87120        
     17500   17500          142.21989      306.57818      9556.0993      3082.4205      12638.52       67809.493      87120        
     17600   17600          143.0423       298.12539      9634.811       2997.4339      12632.245      68099.796      87120        
     17700   17700          143.85774      297.88095      9662.1012      2994.9762      12657.077      68325.368      87120        
     17800   17800          144.67607      308.7184       9601.9888      3103.9389      12705.928      68138.73       87120        
     17900   17900          145.50769      299.09627      9630.34        3007.1954      12637.535      68234.421      87120        
     18000   18000          146.33987      296.33641      9611.1224      2979.4469      12590.569      68097.935      87120        
     18100   18100          147.15646      295.81819      9613.3084      2974.2366      12587.545      68057.99       87120        
     18200   18200          147.97554      301.36389      9570.7106      3029.9946      12600.705      67918.086      87120        
     18300   18300          148.79397      299.88887      9606.85        3015.1644      12622.014      68086.487      87120        
     18400   18400          149.63199      300.19111      9625.8897      3018.2032      12644.093      68222.674      87120        
     18500   18500          150.48117      303.53109      9590.7698      3051.7842      12642.554      68108.707      87120        
     18600   18600          151.35513      289.8624       9655.4465      2914.3555      12569.802      68179.454      87120        
     18700   18700          152.22734      299.27581      9564.5113      3009.0005      12573.512      67874.849      87120        
     18800   18800          153.10621      302.60824      9610.2165      3042.5056      12652.722      68078.1        87120        
     18900   18900          153.99793      304.04946      9633.4218      3056.996       12690.418      68241.554      87120        
     19000   19000          154.88368      295.7764       9642.9611      2973.8164      12616.777      68217.863      87120        
     19100   19100          155.74564      301.24131      9568.3957      3028.7621      12597.158      67936.142      87120        
     19200   19200          156.63401      301.76542      9634.8837      3034.0317      12668.915      68102.644      87120        
     19300   19300          157.51348      306.68885      9658.731       3083.5332      12742.264      68235.227      87120        
     19400   19400          158.42707      302.04971      9614.8703      3036.89        12651.76       68125.673      87120        
     19500   19500          159.31597      299.55727      9608.5502      3011.8304      12620.381      68086.767      87120        
     19600   19600          160.21944      297.5168       9630.9005      2991.3149      12622.215      68152.829      87120        
     19700   19700          161.11755      305.98632      9601.8522      3076.4698      12678.322      68107.886      87120        
     19800   19800          162.02596      305.81777      9651.2584      3074.7751      12726.033      68227.788      87120        
     19900   19900          162.93066      299.60011      9628.4013      3012.261       12640.662      68120.294      87120        
     20000   20000          163.79892      293.87329      9592.7481      2954.6821      12547.43       68031.903      87120        
     20100   20100          164.6914       299.90949      9608.8408      3015.3716      12624.212      68108.841      87120        
     20200   20200          165.60328      297.68823      9698.9743      2993.0386      12692.013      68325.449      87120        
     20300   20300          166.50815      304.01726      9653.8075      3056.6723      12710.48       68193.726      87120        
     20400   20400          167.41734      301.98882      9593.7246      3036.2778      12630.002      67926.863      87120        
     20500   20500          168.18902      298.25866      9527.1519      2998.7738      12525.926      67745.758      87120        
     20600   20600          168.95769      294.08192      9587.3506      2956.7797      12544.13       67972.651      87120        
     20700   20700          169.74971      300.43314      9607.1041      3020.6366      12627.741      67989.74       87120        
     20800   20800          170.70738      305.55846      9578.4326      3072.168       12650.601      67904.728      87120        
     20900   20900          171.67378      292.46846      9671.0485      2940.5575      12611.606      68162.914      87120        
     21000   21000          172.66036      303.31576      9594.9181      3049.6193      12644.537      67988.958      87120        
     21100   21100          173.63213      300.9589       9616.7652      3025.9227      12642.688      68082.944      87120        
     21200   21200          174.5903       301.01612      9600.0351      3026.498       12626.533      68005.497      87120        
     21300   21300          175.55135      303.5653       9571.8696      3052.1282      12623.998      67937.982      87120        
     21400   21400          176.53517      306.09873      9534.1902      3077.6         12611.79       67788.865      87120        
     21500   21500          177.5356       298.20008      9567.2328      2998.1848      12565.418      67869.564      87120        
     21600   21600          178.49368      295.93722      9596.2006      2975.4334      12571.634      68015.711      87120        
     21700   21700          179.48028      302.18043      9660.8575      3038.2043      12699.062      68369.763      87120        
     21800   21800          180.48308      306.42132      9649.9574      3080.8434      12730.801      68335.386      87120        
     21900   21900          181.48291      294.58009      9676.2786      2961.7885      12638.067      68366.99       87120        
     22000   22000          182.41371      299.2899       9618.7857      3009.1422      12627.928      68159.836      87120        
     22100   22100          183.19081      297.66656      9674.1704      2992.8206      12666.991      68325.888      87120        
     22200   22200          183.9724       305.09225      9699.347       3067.4806      12766.828      68461.023      87120        
     22300   22300          184.75471      305.36524      9695.3287      3070.2253      12765.554      68477.653      87120        
     22400   22400          185.59159      298.97087      9646.5731      3005.9345      12652.508      68302.5        87120        
     22500   22500          186.58664      298.21485      9635.4552      2998.3334      12633.789      68169.839      87120        
     22600   22600          187.57904      296.89423      9680.7959      2985.0554      12665.851      68355.054      87120        
     22700   22700          188.57987      301.81052      9651.5513      3034.4851      12686.036      68292.582      87120        
     22800   22800          189.59936      303.7758       9604.5551      3054.2446      12658.8        68070.407      87120        
     22900   22900          190.60018      293.79066      9549.6975      2953.8513      12503.549      67752.357      87120        
     23000   23000          191.58235      293.87872      9547.6478      2954.7366      12502.384      67701.38       87120        
     23100   23100          192.54981      296.85431      9580.0217      2984.6541      12564.676      67894.377      87120        
     23200   23200          193.50841      301.69552      9565.0779      3033.3289      12598.407      67877.809      87120        
     23300   23300          194.47247      298.82879      9592.1242      3004.506       12596.63       67961.939      87120        
     23400   23400          195.44215      293.94314      9566.7612      2955.3844      12522.146      67826.252      87120        
     23500   23500          196.42512      293.5867       9551.9209      2951.8006      12503.721      67761.657      87120        
     23600   23600          197.37988      301.79349      9595.1511      3034.314       12629.465      67997.579      87120        
     23700   23700          198.23532      303.15781      9604.4117      3048.0312      12652.443      68005.305      87120        
     23800   23800          199.01028      298.94035      9619.4737      3005.6276      12625.101      68082.714      87120        
     23900   23900          199.77772      295.77888      9624.2217      2973.8414      12598.063      68112.889      87120        
     24000   24000          200.56546      291.92952      9578.3707      2935.1389      12513.51       67889.042      87120        
     24100   24100          201.3954       291.60925      9601.6494      2931.9188      12533.568      67964.056      87120        
     24200   24200          202.35977      298.33041      9644.4945      2999.4952      12643.99       68145.86       87120        
     24300   24300          203.34187      307.92608      9565.7203      3095.9726      12661.693      67844.605      87120        
     24400   24400          204.31619      301.33096      9566.6348      3029.6635      12596.298      67810.387      87120        
     24500   24500          205.2685       295.50046      9561.3513      2971.0421      12532.393      67892.05       87120        
     24600   24600          206.24046      293.83295      9601.223       2954.2764      12555.499      68061.536      87120        
     24700   24700          207.22354      307.35334      9592.595       3090.2142      12682.809      67981.74       87120        
     24800   24800          208.22365      305.59773      9630.6081      3072.5628      12703.171      68089.91       87120        
     24900   24900          209.23482      303.22446      9625.4915      3048.7013      12674.193      68145.702      87120        
     25000   25000          210.23266      297.52816      9632.3429      2991.4291      12623.772      68210.297      87120        
     25100   25100          211.21167      300.46451      9582.0756      3020.952       12603.028      67988.031      87120        
     25200   25200          212.19095      295.96033      9698.4569      2975.6657      12674.123      68255.176      87120        
     25300   25300          213.02843      305.03711      9690.551       3066.9261      12757.477      68306.894      87120        
     25400   25400          213.81162      306.27204      9633.2216      3079.3425      12712.564      68208.27       87120        
     25500   25500          214.59592      298.47033      9648.8916      3000.9019      12649.794      68214.169      87120        
     25600   25600          215.38059      296.43636      9667.7093      2980.4518      12648.161      68239.983      87120        
     25700   25700          216.28594      302.08562      9634.5337      3037.251       12671.785      68125.923      87120        
     25800   25800          217.28681      302.43121      9645.0614      3040.7257      12685.787      68093.152      87120        
     25900   25900          218.2779       309.9993       9623.1443      3116.8174      12739.962      68086.84       87120        
     26000   26000          219.26638      303.10654      9606.6642      3047.5157      12654.18       68020.834      87120        
     26100   26100          220.2245       298.4048       9579.9887      3000.2431      12580.232      67848.19       87120        
     26200   26200          221.17523      294.72282      9614.8299      2963.2235      12578.053      67976.972      87120        
     26300   26300          222.15073      300.93283      9601.0851      3025.6606      12626.746      68019.491      87120        
     26400   26400          223.13796      304.29203      9627.5124      3059.435       12686.947      68106.993      87120        
     26500   26500          224.12032      308.11657      9615.6615      3097.8879      12713.549      67957.958      87120        
     26600   26600          225.09662      305.73695      9552.6142      3073.9625      12626.577      67772.476      87120        
     26700   26700          226.06072      299.0741       9529.4734      3006.9724      12536.446      67700.056      87120        
     26800   26800          227.03114      298.04717      9552.0187      2996.6474      12548.666      67738.383      87120        
     26900   26900          227.82954      300.42654      9635.5308      3020.5703      12656.101      67986.568      87120        
     27000   27000          228.60696      309.15307      9590.2734      3108.3092      12698.583      67941.811      87120        
     27100   27100          229.37579      296.24075      9676.2881      2978.4851      12654.773      68291.89       87120        
     27200   27200          230.13159      299.77989      9635.2129      3014.0686      12649.282      68115.754      87120        
     27300   27300          231.02638      300.36151      9608.8019      3019.9164      12628.718      67896.839      87120        
     27400   27400          232.00379      300.32556      9572.1657      3019.555       12591.721      67843.093      87120        
     27500   27500          232.99078      288.198        9586.1715      2897.6212      12483.793      67912.399      87120        
     27600   27600          233.96553      294.48291      9588.9839      2960.8114      12549.795      67933.771      87120        
     27700   27700          234.946        303.78489      9576.1316      3054.336       12630.468      67886.815      87120        
     27800   27800          235.91398      299.83992      9625.9823      3014.6722      12640.655      68064.242      87120        
     27900   27900          236.89379      301.43082      9594.2207      3030.6675      12624.888      67949.688      87120        
     28000   28000          237.87682      294.00256      9626.4928      2955.9818      12582.475      68032.762      87120        
     28100   28100          238.84785      291.48853      9662.3337      2930.705       12593.039      68239.161      87120        
     28200   28200          239.8247       308.46221      9617.3971      3101.363       12718.76       68140.911      87120        
     28300   28300          240.79421      302.88943      9641.5287      3045.3328      12686.862      68223.469      87120        
     28400   28400          241.78346      296.9846       9631.25        2985.964       12617.214      68127.664      87120        
     28500   28500          242.55842      293.73255      9649.9642      2953.267       12603.231      68118.168      87120        
     28600   28600          243.33634      301.33663      9669.6846      3029.7205      12699.405      68181.932      87120        
     28700   28700          244.10545      307.32552      9641.9281      3089.9344      12731.863      68093.23       87120        
     28800   28800          244.90117      301.00808      9675.0051      3026.4172      12701.422      68333          87120        
     28900   28900          245.84296      299.41068      9666.9229      3010.3565      12677.279      68302.625      87120        
     29000   29000          246.85712      300.12767      9619.2587      3017.5653      12636.824      68102.636      87120        
     29100   29100          247.83227      300.94131      9593.96        3025.7459      12619.706      67910.97       87120        
     29200   29200          248.81187      303.41366      9653.8887      3050.6036      12704.492      68150.828      87120        
     29300   29300          249.80559      307.91881      9600.727       3095.8996      12696.627      67902.946      87120        
     29400   29400          250.81023      300.06345      9595.0063      3016.9196      12611.926      67935.438      87120        
     29500   29500          251.79079      302.05556      9541.2277      3036.9489      12578.177      67777.277      87120        
     29600   29600          252.7692       298.722        9575.2447      3003.4323      12578.677      67850.12       87120        
     29700   29700          253.76086      297.11231      9634.2252      2987.248       12621.473      67997.001      87120        
     29800   29800          254.74614      301.13659      9587.3112      3027.7092      12615.02       67824.415      87120        
     29900   29900          255.66625      301.67806      9548.121       3033.1534      12581.274      67664.511      87120        
     30000   30000          256.4352       299.76608      9549.1354      3013.9297      12563.065      67709.374      87120        
     30100   30100          257.19852      302.42363      9528.3799      3040.6495      12569.029      67653.145      87120        
     30200   30200          257.97206      302.01369      9598.3         3036.5279      12634.828      67858.09       87120        
     30300   30300          258.75007      312.90493      9572.8448      3146.0313      12718.876      67788.535      87120        
     30400   30400          259.70098      302.87273      9583.7519      3045.1649      12628.917      67815.984      87120        
     30500   30500          260.67355      300.98425      9572.5551      3026.1776      12598.733      67823.242      87120        
     30600   30600          261.64441      301.06658      9575.557       3027.0054      12602.562      67876.473      87120        
     30700   30700          262.63323      297.3096       9566.1627      2989.2317      12555.394      67845.435      87120        
     30800   30800          263.62175      292.10518      9635.3549      2936.905       12572.26       68011.964      87120        
     30900   30900          264.62413      302.9304       9670.372       3045.7447      12716.117      68208.73       87120        
     31000   31000          265.61051      307.48497      9666.8384      3091.5376      12758.376      68179.645      87120        
     31100   31100          266.59402      300.39354      9681.4806      3020.2385      12701.719      68342.847      87120        
     31200   31200          267.58927      297.96289      9685.8982      2995.8         12681.698      68438.008      87120        
     31300   31300          268.56626      298.71464      9697.0788      3003.3583      12700.437      68521.752      87120        
     31400   31400          269.44615      302.83227      9740.0763      3044.7581      12784.834      68606.981      87120        
     31500   31500          270.23236      304.25456      9757.8073      3059.0582      12816.865      68602.182      87120        
     31600   31600          271.03374      296.18028      9674.6446      2977.8772      12652.522      68203.36       87120        
     31700   31700          271.83041      294.52233      9668.9258      2961.2077      12630.133      68229.35       87120        
     31800   31800          272.69854      303.0541       9637.6735      3046.9884      12684.662      68206.426      87120        
     31900   31900          273.68248      303.40243      9633.7178      3050.4907      12684.208      68159.691      87120        
     32000   32000          274.66736      292.5936       9648.2455      2941.8157      12590.061      68062.323      87120        
     32100   32100          275.65716      299.48687      9516.2639      3011.1225      12527.386      67581.478      87120        
     32200   32200          276.64362      294.48413      9520.6713      2960.8237      12481.495      67548.067      87120        
     32300   32300          277.62682      302.60763      9525.7599      3042.4995      12568.259      67695.04       87120        
     32400   32400          278.60402      302.36035      9542.3197      3040.0133      12582.333      67775.595      87120        
     32500   32500          279.62265      294.68642      9578.9647      2962.8575      12541.822      67806.689      87120        
     32600   32600          280.59208      301.47243      9551.2568      3031.0859      12582.343      67631.339      87120        
     32700   32700          281.57914      309.27905      9573.5096      3109.5758      12683.085      67794.791      87120        
     32800   32800          282.56173      308.1515       9564.4013      3098.2391      12662.64       67815.533      87120        
     32900   32900          283.34218      300.49957      9558.1183      3021.3045      12579.423      67811.528      87120        
     33000   33000          284.11552      304.69887      9484.1337      3063.5254      12547.659      67493.856      87120        
     33100   33100          284.88173      299.9457       9520.5483      3015.7357      12536.284      67626.35       87120        
     33200   33200          285.6577       302.54712      9526.7247      3041.8911      12568.616      67634.112      87120        
     33300   33300          286.57052      298.08223      9636.6639      2997           12633.664      68081.265      87120        
     33400   33400          287.59429      299.25798      9653.4465      3008.8212      12662.268      68145.576      87120        
     33500   33500          288.59682      295.9645       9689.5629      2975.7077      12665.271      68270.158      87120        
     33600   33600          289.60592      302.92197      9587.0722      3045.6599      12632.732      68009.531      87120        
     33700   33700          290.61055      298.31189      9592.4498      2999.309       12591.759      67991.637      87120        
     33800   33800          291.61397      298.52904      9608.3772      3001.4923      12609.869      68005.335      87120        
     33900   33900          292.62363      298.22609      9690.3238      2998.4463      12688.77       68269.262      87120        
     34000   34000          293.6327       306.7704       9730.1753      3084.3531      12814.528      68529.247      87120        
     34100   34100          294.62058      300.00117      9757.0888      3016.2935      12773.382      68616.351      87120        
     34200   34200          295.6132       297.47829      9741.4975      2990.9278      12732.425      68532.069      87120        
     34300   34300          296.52534      298.08767      9674.4082      2997.0546      12671.463      68285.505      87120        
     34400   34400          297.31957      301.0312       9621.0499      3026.6496      12647.7        68119.679      87120        
     34500   34500          298.11521      295.89228      9662.194       2974.9815      12637.176      68299.606      87120        
     34600   34600          298.90413      294.47283      9651.2177      2960.71        12611.928      68217.431      87120        
     34700   34700          299.73667      305.45856      9633.5037      3071.1635      12704.667      68123.953      87120        
     34800   34800          300.76201      302.76454      9627.9508      3044.0772      12672.028      68125.196      87120        
     34900   34900          301.7804       296.26831      9602.2356      2978.7623      12580.998      68049.175      87120        
     35000   35000          302.76539      297.86256      9579.8218      2994.7913      12574.613      67919.925      87120        
     35100   35100          303.73064      305.90424      9571.2727      3075.6445      12646.917      67760.307      87120        
     35200   35200          304.71168      300.55854      9619.3802      3021.8974      12641.278      67893.104      87120        
     35300   35300          305.68467      298.26773      9598.2967      2998.865       12597.162      67838.071      87120        
     35400   35400          306.67815      293.53104      9609.7016      2951.241       12560.943      67985.973      87120        
     35500   35500          307.65549      303.14023      9551.0177      3047.8544      12598.872      67735.656      87120        
     35600   35600          308.64759      307.96331      9629.0969      3096.347       12725.444      67992.796      87120        
     35700   35700          309.61963      303.95241      9624.8424      3056.0203      12680.863      67924.871      87120        
     35800   35800          310.43394      297.78661      9633.0232      2994.0276      12627.051      68000.249      87120        
     35900   35900          311.21193      302.90432      9558.6631      3045.4825      12604.146      67807.211      87120        
     36000   36000          311.98864      295.94458      9620.703       2975.5074      12596.21       67988.705      87120        
     36100   36100          312.75038      305.44968      9597.9288      3071.0742      12669.003      67903.82       87120        
     36200   36200          313.61007      314.62193      9583.586       3163.2946      12746.881      67862.613      87120        
     36300   36300          314.58462      299.40709      9647.1916      3010.3204      12657.512      68077.536      87120        
     36400   36400          315.56675      299.00627      9636.4212      3006.2905      12642.712      68056.807      87120        
     36500   36500          316.56822      303.97412      9607.5294      3056.2385      12663.768      68024.905      87120        
     36600   36600          317.58085      296.32397      9664.4552      2979.3219      12643.777      68186.253      87120        
     36700   36700          318.57443      294.97223      9613.7334      2965.7311      12579.464      67985.216      87120        
     36800   36800          319.57359      295.88167      9642.2855      2974.8748      12617.16       68087.263      87120        
     36900   36900          320.55773      307.9089       9643.0487      3095.7999      12738.849      68178.577      87120        
     37000   37000          321.54922      307.11796      9602.9618      3087.8476      12690.809      68015.333      87120        
     37100   37100          322.53558      300.51096      9617.361       3021.419       12638.78       68050.36       87120        
     37200   37200          323.52823      297.82262      9630.1462      2994.3897      12624.536      68008.317      87120        
     37300   37300          324.3233       298.23133      9691.3703      2998.499       12689.869      68289.385      87120        
     37400   37400          325.10984      301.14083      9693.9016      3027.7519      12721.653      68394.337      87120        
     37500   37500          325.89971      299.16981      9672.2094      3007.9348      12680.144      68371.28       87120        
     37600   37600          326.71538      299.05176      9623.0077      3006.7478      12629.755      68194.58       87120        
     37700   37700          327.69699      290.97736      9643.7417      2925.5656      12569.307      68075.145      87120        
     37800   37800          328.69357      304.35964      9566.5575      3060.1147      12626.672      67874.638      87120        
     37900   37900          329.69263      302.06969      9607.5444      3037.0909      12644.635      68041.613      87120        
     38000   38000          330.68093      298.65957      9632.88        3002.8046      12635.685      68141.498      87120        
     38100   38100          331.64501      300.11418      9636.6672      3017.4297      12654.097      68076.529      87120        
     38200   38200          332.62164      304.06731      9564.3548      3057.1755      12621.53       67787.224      87120        
     38300   38300          333.59729      295.71005      9543.9202      2973.1494      12517.07       67688.304      87120        
     38400   38400          334.58899      293.9304       9565.1132      2955.2563      12520.369      67735.199      87120        
     38500   38500          335.57314      298.36366      9561.6104      2999.8295      12561.44       67744.136      87120        
     38600   38600          336.53707      303.95785      9501.4041      3056.075       12557.479      67537.951      87120        
     38700   38700          337.4197       295.99187      9503.3525      2975.9828      12479.335      67515.374      87120        
     38800   38800          338.18524      293.78714      9486.4532      2953.8159      12440.269      67405.751      87120        
     38900   38900          338.96912      292.04646      9571.5175      2936.3147      12507.832      67762.669      87120        
     39000   39000          339.75244      303.03704      9564.199       3046.8169      12611.016      67792.107      87120        
     39100   39100          340.56361      304.8051       9564.0881      3064.5935      12628.682      67809.425      87120        
     39200   39200          341.55631      298.58051      9584.18        3002.0098      12586.19       67847.213      87120        
     39300   39300          342.5504       291.88333      9594.8934      2934.6745      12529.568      67917.317      87120        
     39400   39400          343.53919      300.22415      9587.6347      3018.5354      12606.17       67871.374      87120        
     39500   39500          344.54301      304.54176      9621.8542      3061.9458      12683.8        68053.574      87120        
     39600   39600          345.54753      302.4393       9614.431       3040.8071      12655.238      68023.061      87120        
     39700   39700          346.55651      302.3439       9604.6614      3039.8479      12644.509      67968.288      87120        
     39800   39800          347.54229      297.49676      9623.4548      2991.1134      12614.568      68028.194      87120        
     39900   39900          348.52692      296.9623       9585.408       2985.7398      12571.148      67935.353      87120        
     40000   40000          349.51323      288.76909      9633.1483      2903.363       12536.511      68076.631      87120        
     40100   40100          350.48984      300.37779      9619.0441      3020.0801      12639.124      68062.976      87120        
     40200   40200          351.32797      301.59071      9649.5166      3032.2751      12681.792      68073.36       87120        
     40300   40300          352.10578      303.43097      9584.3706      3050.7776      12635.148      67926.046      87120        
     40400   40400          352.87947      294.30424      9609.6742      2959.015       12568.689      68067.13       87120        
     40500   40500          353.66174      296.56886      9599.9035      2981.7841      12581.688      68002.639      87120        
     40600   40600          354.54789      309.46821      9594.2657      3111.4777      12705.743      67917.035      87120        
     40700   40700          355.55312      305.15151      9650.3404      3068.0764      12718.417      68095.82       87120        
     40800   40800          356.51922      294.44302      9669.8786      2960.4103      12630.289      68094.162      87120        
     40900   40900          357.49818      298.79755      9590.3129      3004.1919      12594.505      67972.163      87120        
     41000   41000          358.48163      294.78334      9610.0982      2963.832       12573.93       68077.932      87120        
     41100   41100          359.44268      302.68847      9561.545       3043.3123      12604.857      67811.507      87120        
     41200   41200          360.39997      305.99681      9595.23        3076.5753      12671.805      67818.439      87120        
     41300   41300          361.34013      299.99027      9634.8877      3016.1839      12651.072      67951.088      87120        
     41400   41400          362.28675      296.53511      9592.7443      2981.4447      12574.189      67971.111      87120        
     41500   41500          363.27643      296.51652      9580.169       2981.2578      12561.427      67914.984      87120        
     41600   41600          364.28066      295.94446      9620.0924      2975.5062      12595.599      68055.211      87120        
     41700   41700          365.06328      305.74601      9613.2003      3074.0536      12687.254      68079.49       87120        
     41800   41800          365.86326      303.17494      9625.0151      3048.2034      12673.219      68086.902      87120        
     41900   41900          366.65029      298.75897      9585.7912      3003.8041      12589.595      67828.427      87120        
     42000   42000          367.43449      304.6182       9517.121       3062.7143      12579.835      67622.426      87120        
     42100   42100          368.36556      293.81165      9640.5933      2954.0623      12594.656      68062.711      87120        
     42200   42200          369.37552      306.81355      9577.2902      3084.787       12662.077      67984.186      87120        
     42300   42300          370.36633      305.72257      9586.0891      3073.818       12659.907      67971.95       87120        
     42400   42400          371.34901      296.75576      9593.4837      2983.6632      12577.147      67927.851      87120        
     42500   42500          372.34747      295.71705      9602.1104      2973.2197      12575.33       67915.015      87120        
     42600   42600          373.32774      303.26421      9559.7648      3049.1009      12608.866      67829.955      87120        
     42700   42700          374.32933      298.49667      9604.499       3001.1668      12605.666      67992.331      87120        
     42800   42800          375.32962      303.37092      9593.5784      3050.1739      12643.752      67982.731      87120        
     42900   42900          376.31633      302.15926      9632.3874      3037.9915      12670.379      68100.492      87120        
     43000   43000          377.31851      294.77991      9671.6712      2963.7975      12635.469      68255.421      87120        
     43100   43100          378.21888      298.81546      9631.3677      3004.372       12635.74       68124.309      87120        
     43200   43200          379.01297      304.18946      9621.4457      3058.4037      12679.849      68074.941      87120        
     43300   43300          379.79276      304.02296      9666.0021      3056.7296      12722.732      68166.161      87120        
     43400   43400          380.58595      301.80536      9636.0998      3034.4333      12670.533      68063.911      87120        
     43500   43500          381.40263      292.71991      9608.6821      2943.0857      12551.768      67887.865      87120        
     43600   43600          382.40065      294.76802      9616.8323      2963.678       12580.51       67956.09       87120        
     43700   43700          383.40388      303.98221      9590.2178      3056.3199      12646.538      68033.024      87120        
     43800   43800          384.40028      299.8792       9648.4895      3015.0671      12663.557      68195.994      87120        
     43900   43900          385.39835      296.65361      9671.4555      2982.6362      12654.092      68172.874      87120        
     44000   44000          386.37413      304.24445      9596.4887      3058.9566      12655.445      67838.065      87120        
     44100   44100          387.32924      301.19364      9610.5741      3028.2829      12638.857      67909.466      87120        
     44200   44200          388.31242      299.19989      9570.9156      3008.2371      12579.153      67815.797      87120        
     44300   44300          389.28249      295.92992      9568.5222      2975.36        12543.882      67843.627      87120        
     44400   44400          390.26803      296.61168      9611.5677      2982.2146      12593.782      68020.561      87120        
     44500   44500          391.27032      302.17511      9622.4362      3038.1508      12660.587      68002.023      87120        
     44600   44600          392.11155      306.11393      9593.7111      3077.7528      12671.464      67916.975      87120        
     44700   44700          392.89803      301.51379      9613.5301      3031.5017      12645.032      67962.74       87120        
     44800   44800          393.67556      303.75953      9556.2308      3054.081       12610.312      67753.246      87120        
     44900   44900          394.45438      297.57825      9589.9204      2991.9328      12581.853      67893.055      87120        
     45000   45000          395.34194      299.38444      9548.2068      3010.0927      12558.3        67746.565      87120        
     45100   45100          396.29678      298.27075      9621.3171      2998.8954      12620.213      68026.226      87120        
     45200   45200          397.26667      305.52964      9628.0201      3071.8782      12699.898      68007.41       87120        
     45300   45300          398.23948      306.31324      9606.495       3079.7567      12686.252      67929.758      87120        
     45400   45400          399.22453      296.28404      9628.5217      2978.9204      12607.442      68035.393      87120        
     45500   45500          400.20612      297.41587      9635.8893      2990.3001      12626.189      68070.324      87120        
     45600   45600          401.20198      300.30482      9662.376       3019.3464      12681.722      68101.572      87120        
     45700   45700          402.19141      305.51917      9610.1728      3071.7729      12681.946      68080.45       87120        
     45800   45800          403.18181      297.11712      9594.7053      2987.2964      12582.002      68001.932      87120        
     45900   45900          404.16731      294.56643      9591.271       2961.6511      12552.922      67891.812      87120        
     46000   46000          405.15709      298.16623      9588.6321      2997.8445      12586.477      67865.809      87120        
     46100   46100          405.93062      298.52354      9650.5188      3001.4369      12651.956      68130.321      87120        
     46200   46200          406.71793      308.24632      9609.1197      3099.1924      12708.312      68024.515      87120        
     46300   46300          407.50766      302.68219      9620.3212      3043.2492      12663.57       68002.866      87120        
     46400   46400          408.28795      297.79861      9631.3459      2994.1484      12625.494      68065.862      87120        
     46500   46500          409.23052      299.40136      9643.7079      3010.2628      12653.971      68228.498      87120        
     46600   46600          410.24504      298.51307      9674.3354      3001.3317      12675.667      68332.879      87120        
     46700   46700          411.24278      306.34179      9637.5452      3080.0437      12717.589      68133.335      87120        
     46800   46800          412.24504      303.01722      9710.5665      3046.6176      12757.184      68315.854      87120        
     46900   46900          413.2482       299.10733      9625.6459      3007.3065      12632.952      68049.546      87120        
     47000   47000          414.26366      292.32824      9650.2562      2939.1477      12589.404      68137.036      87120        
     47100   47100          415.24496      301.40993      9589.1752      3030.4575      12619.633      67876.686      87120        
     47200   47200          416.21903      304.12156      9595.6219      3057.721       12653.343      67876.458      87120        
     47300   47300          417.20495      302.58468      9563.577       3042.2687      12605.846      67763.692      87120        
     47400   47400          418.17348      297.88836      9501.2882      2995.0506      12496.339      67502.816      87120        
     47500   47500          419.0713       292.51044      9571.2238      2940.9796      12512.203      67717.703      87120        
     47600   47600          419.83663      301.67387      9568.2664      3033.1112      12601.378      67770.344      87120        
     47700   47700          420.61461      301.57329      9568.2299      3032.1         12600.33       67818.285      87120        
     47800   47800          421.40844      294.59294      9603.9151      2961.9176      12565.833      67881.646      87120        
     47900   47900          422.21204      299.09762      9607.034       3007.2089      12614.243      67902.305      87120        
     48000   48000          423.19904      308.38453      9615.1946      3100.582       12715.777      67956.508      87120        
     48100   48100          424.1523       302.67994      9653.9212      3043.2266      12697.148      68059.786      87120        
     48200   48200          425.13103      296.01089      9667.9163      2976.1741      12644.09       68154.289      87120        
     48300   48300          426.09909      301.35227      9637.0627      3029.8778      12666.941      68065.054      87120        
     48400   48400          427.07287      303.01434      9664.8959      3046.5887      12711.485      68242.388      87120        
     48500   48500          428.05667      299.74043      9679.1045      3013.6719      12692.776      68290.714      87120        
     48600   48600          429.04109      293.38977      9639.321       2949.8207      12589.142      68066.727      87120        
     48700   48700          430.03369      298.67052      9558.7589      3002.9147      12561.674      67816.969      87120        
     48800   48800          431.00976      302.5832       9596.9025      3042.2539      12639.156      67906.247      87120        
     48900   48900          431.97486      305.32767      9593.9178      3069.8475      12663.765      67956.264      87120        
     49000   49000          432.83635      301.87983      9601.9054      3035.182       12637.087      67975.497      87120        
     49100   49100          433.59407      297.81561      9628.4254      2994.3192      12622.745      68046.805      87120        
     49200   49200          434.37133      305.56622      9564.831       3072.246       12637.077      67831.52       87120        
     49300   49300          435.14186      294.45559      9622.7212      2960.5366      12583.258      68017.95       87120        
     49400   49400          435.95663      292.34406      9603.5847      2939.3068      12542.891      68024.512      87120        
     49500   49500          436.95607      299.38161      9619.0957      3010.0642      12629.16       68062.583      87120        
     49600   49600          437.95715      305.34761      9614.8149      3070.048       12684.863      68022.923      87120        
     49700   49700          438.95055      303.48949      9641.9934      3051.3659      12693.359      68162.324      87120        
     49800   49800          439.94184      298.6773       9671.3199      3002.9829      12674.303      68278.666      87120        
     49900   49900          440.95283      296.45299      9609.7992      2980.619       12590.418      67972.404      87120        
     50000   50000          441.94995      294.05449      9614.0286      2956.5039      12570.532      67985.777      87120        
     50100   50100          442.91434      300.73744      9633.9385      3023.6961      12657.635      68078.004      87120        
     50200   50200          443.91243      299.23625      9627.0707      3008.6027      12635.673      68047.13       87120        
     50300   50300          444.88899      295.55214      9633.1383      2971.5617      12604.7        68026.846      87120        
     50400   50400          445.86191      304.17352      9611.8824      3058.2434      12670.126      67972.318      87120        
     50500   50500          446.66598      307.23945      9598.5618      3089.0691      12687.631      67877.975      87120        
     50600   50600          447.43854      299.72967      9589.6924      3013.5637      12603.256      67904.398      87120        
     50700   50700          448.21239      300.1821       9553.1893      3018.1126      12571.302      67799.749      87120        
     50800   50800          448.98799      294.76334      9626.6054      2963.6309      12590.236      67954.739      87120        
     50900   50900          449.87724      304.65076      9597.8461      3063.0417      12660.888      67897.934      87120        
     51000   51000          450.86174      302.3914       9587.1283      3040.3255      12627.454      67855.815      87120        
     51100   51100          451.81743      300.28175      9499.5188      3019.1145      12518.633      67604.621      87120        
     51200   51200          452.80477      292.69632      9556.4891      2942.8485      12499.338      67802.017      87120        
     51300   51300          453.78023      301.19032      9558.2173      3028.2495      12586.467      67761.104      87120        
     51400   51400          454.74791      297.12874      9632.7624      2987.4132      12620.176      67890.441      87120        
     51500   51500          455.7152       302.53413      9584.7895      3041.7606      12626.55       67755.483      87120        
     51600   51600          456.6906       303.21707      9562.9593      3048.627       12611.586      67825.202      87120        
     51700   51700          457.66729      295.25304      9575.8228      2968.5544      12544.377      67963.197      87120        
     51800   51800          458.6522       298.13022      9555.2765      2997.4824      12552.759      67777.051      87120        
     51900   51900          459.63355      300.81923      9621.6691      3024.5185      12646.188      67912.269      87120        
     52000   52000          460.4334       301.46721      9636.8255      3031.0335      12667.859      67945.945      87120        
     52100   52100          461.20706      301.0579       9628.0004      3026.9181      12654.918      68001.541      87120        
     52200   52200          461.98601      298.64283      9640.2604      3002.6363      12642.897      68155.763      87120        
     52300   52300          462.76233      302.40181      9608.6572      3040.4302      12649.087      68125.992      87120        
     52400   52400          463.70367      301.29172      9586.3326      3029.269       12615.602      67890.309      87120        
     52500   52500          464.70987      291.11766      9600.4865      2926.9762      12527.463      67740.503      87120        
     52600   52600          465.70193      291.2023       9604.1849      2927.8273      12532.012      67892.191      87120        
     52700   52700          466.68755      298.35357      9645.7375      2999.728       12645.466      68201.305      87120        
     52800   52800          467.68108      306.07287      9591.2685      3077.34        12668.608      68070.105      87120        
     52900   52900          468.67942      304.24025      9573.5755      3058.9143      12632.49       67847.189      87120        
     53000   53000          469.67593      297.62636      9570.1434      2992.4164      12562.56       67711.511      87120        
     53100   53100          470.64135      293.59248      9577.1166      2951.8587      12528.975      67786.521      87120        
     53200   53200          471.61045      303.82194      9578.3998      3054.7085      12633.108      67813.771      87120        
     53300   53300          472.60097      304.65253      9562.1056      3063.0595      12625.165      67746.469      87120        
     53400   53400          473.53141      299.42524      9553.3113      3010.5029      12563.814      67755.086      87120        
     53500   53500          474.30915      297.38861      9565.6792      2990.0261      12555.705      67740.812      87120        
     53600   53600          475.09961      303.50618      9585.1478      3051.5338      12636.682      67825.81       87120        
     53700   53700          475.88985      305.01413      9639.7636      3066.6951      12706.459      68015.95       87120        
     53800   53800          476.69829      302.47527      9574.4975      3041.1688      12615.666      67869.051      87120        
     53900   53900          477.69732      299.40408      9555.812       3010.2902      12566.102      67731.503      87120        
     54000   54000          478.69567      295.91028      9582.2637      2975.1625      12557.426      67782.551      87120        
     54100   54100          479.65165      298.2128       9592.903       2998.3127      12591.216      67796.007      87120        
     54200   54200          480.61963      312.2957       9542.1179      3139.906       12682.024      67677.952      87120        
     54300   54300          481.68304      300.14377      9632.1222      3017.7272      12649.849      68012.632      87120        
     54400   54400          482.6709       300.2752       9574.5688      3019.0486      12593.617      67800.452      87120        
     54500   54500          483.66235      303.01419      9570.3186      3046.5872      12616.906      67851.829      87120        
     54600   54600          484.64378      295.5662       9676.0453      2971.703       12647.748      68178.773      87120        
     54700   54700          485.62488      314.9034       9579.4501      3166.1245      12745.575      67916.583      87120        
     54800   54800          486.60518      301.18621      9669.1045      3028.2082      12697.313      68249.826      87120        
     54900   54900          487.45956      298.80858      9618.4129      3004.3028      12622.716      68030.345      87120        
     55000   55000          488.24653      302.70484      9545.5264      3043.4769      12589.003      67741.624      87120        
     55100   55100          489.00882      293.8963       9632.7372      2954.9134      12587.651      68008.51       87120        
     55200   55200          489.8005       302.11573      9638.0885      3037.5538      12675.642      68018.555      87120        
     55300   55300          490.69625      306.83556      9671.3677      3085.0082      12756.376      68299.157      87120        
     55400   55400          491.68699      298.09662      9680.4142      2997.1446      12677.559      68310.569      87120        
     55500   55500          492.68803      292.84543      9681.1412      2944.3477      12625.489      68244.2        87120        
     55600   55600          493.67614      299.99007      9651.0674      3016.1819      12667.249      68080.195      87120        
     55700   55700          494.67868      308.5221       9603.9695      3101.9652      12705.935      67955.698      87120        
     55800   55800          495.67026      300.33558      9646.9869      3019.6557      12666.643      68166.263      87120        
     55900   55900          496.65408      294.75214      9628.0047      2963.5183      12591.523      68017.007      87120        
     56000   56000          497.64886      301.72196      9595.0099      3033.5947      12628.605      67953.497      87120        
     56100   56100          498.62043      303.39232      9600.4088      3050.389       12650.798      67906.952      87120        
     56200   56200          499.59074      300.87683      9604.324       3025.0975      12629.422      67895.856      87120        
     56300   56300          500.5374       300.7153       9598.9488      3023.4735      12622.422      67923.895      87120        
     56400   56400          501.29662      298.65387      9585.5477      3002.7474      12588.295      67923.206      87120        
     56500   56500          502.07209      297.99868      9527.8373      2996.1599      12523.997      67677.216      87120        
     56600   56600          502.84712      292.40912      9568.077       2939.9609      12508.038      67710.538      87120        
     56700   56700          503.63656      303.5957       9571.6736      3052.4338      12624.107      67792.075      87120        
     56800   56800          504.57921      304.23175      9607.6244      3058.8289      12666.453      67938.474      87120        
     56900   56900          505.55193      300.19304      9595.2284      3018.2226      12613.451      67888.365      87120        
     57000   57000          506.54655      301.19561      9500.8498      3028.3027      12529.152      67596.542      87120        
[...]
    986200   986200         8606.433       304.81255      9456.2251      3064.6684      12520.894      67148.52       87120        
    986300   986300         8607.2691      296.24653      9469.6375      2978.5433      12448.181      67195.637      87120        
    986400   986400         8608.1022      297.14035      9426.8734      2987.53        12414.403      67020.474      87120        
    986500   986500         8608.935       304.78388      9360.267       3064.3802      12424.647      66770.385      87120        
    986600   986600         8609.7689      303.10026      9442.9379      3047.4526      12490.39       67085.181      87120        
    986700   986700         8610.6157      309.22852      9478.7761      3109.0678      12587.844      67286.714      87120        
    986800   986800         8611.4486      302.12815      9482.9405      3037.6787      12520.619      67177.242      87120        
    986900   986900         8612.2924      300.36553      9411.4347      3019.9569      12431.392      66877.336      87120        
    987000   987000         8612.9978      299.3688       9403.3025      3009.9355      12413.238      66800.94       87120        
    987100   987100         8613.6682      302.15471      9414.9126      3037.9458      12452.858      66950.928      87120        
    987200   987200         8614.3318      303.39527      9469.671       3050.4187      12520.09       67195.948      87120        
    987300   987300         8614.9992      306.66162      9412.2585      3083.2594      12495.518      66843.109      87120        
    987400   987400         8615.6798      299.38911      9417.0639      3010.1397      12427.204      66936.256      87120        
    987500   987500         8616.3536      296.67698      9463.7963      2982.8712      12446.668      67205.006      87120        
    987600   987600         8617.0535      303.65124      9448.87        3052.9923      12501.862      67137.703      87120        
    987700   987700         8617.9001      303.8841       9445.382       3055.3335      12500.715      66985.369      87120        
    987800   987800         8618.736       297.41257      9443.7058      2990.267       12433.973      66990.219      87120        
    987900   987900         8619.5721      296.13154      9446.653       2977.3871      12424.04       67175.419      87120        
    988000   988000         8620.426       301.63647      9471.8165      3032.7352      12504.552      67296.651      87120        
    988100   988100         8621.2775      304.51118      9477.3356      3061.6383      12538.974      67225.763      87120        
    988200   988200         8622.1349      304.34186      9470.9666      3059.9359      12530.902      67164.904      87120        
    988300   988300         8622.9886      298.41162      9445.3434      3000.3117      12445.655      67065.46       87120        
    988400   988400         8623.8289      296.73607      9440.8955      2983.4653      12424.361      67036.652      87120        
    988500   988500         8624.6843      305.82572      9434.4562      3074.855       12509.311      67096.89       87120        
    988600   988600         8625.5411      304.76693      9504.8169      3064.2097      12569.027      67349.378      87120        
    988700   988700         8626.3429      296.65916      9498.7282      2982.692       12481.42       67212.551      87120        
    988800   988800         8627.0439      296.56865      9458.8404      2981.7819      12440.622      67042.035      87120        
    988900   988900         8627.7296      299.61851      9430.9963      3012.4461      12443.442      67064.041      87120        
    989000   989000         8628.4257      299.97678      9449.1998      3016.0483      12465.248      67175.202      87120        
    989100   989100         8629.1062      307.69198      9421.6104      3093.6189      12515.229      67074.801      87120        
    989200   989200         8629.794       306.46005      9410.5704      3081.2328      12491.803      66996.766      87120        
    989300   989300         8630.4847      297.7684       9395.0313      2993.8446      12388.876      66897.262      87120        
    989400   989400         8631.3123      295.99129      9406.1641      2975.9771      12382.141      66939.662      87120        
    989500   989500         8632.1692      300.06796      9401.7385      3016.9649      12418.703      66925.667      87120        
    989600   989600         8633.0191      299.5788       9391.9456      3012.0468      12403.992      66835.668      87120        
    989700   989700         8633.8512      300.69542      9376.4961      3023.2737      12399.77       66747.971      87120        
    989800   989800         8634.6968      299.80067      9380.868       3014.2775      12395.145      66701.996      87120        
    989900   989900         8635.5233      297.09557      9366.8151      2987.0798      12353.895      66748.316      87120        
    990000   990000         8636.363       290.55547      9363.6858      2921.3238      12285.01       66755.598      87120        
    990100   990100         8637.1843      299.98267      9345.4964      3016.1074      12361.604      66640.063      87120        
    990200   990200         8638.0216      301.65778      9402.5405      3032.9494      12435.49       66927.564      87120        
    990300   990300         8638.8632      305.65144      9337.3374      3073.1028      12410.44       66691.131      87120        
    990400   990400         8639.6951      297.86366      9340.6916      2994.8024      12335.494      66602.569      87120        
    990500   990500         8640.5433      292.80352      9391.2499      2943.9264      12335.176      66774.453      87120        
    990600   990600         8641.2783      301.30315      9407.3049      3029.3839      12436.689      66958.056      87120        
    990700   990700         8641.9576      300.31015      9425.0444      3019.4001      12444.444      66984.926      87120        
    990800   990800         8642.6473      298.78963      9391.7072      3004.1123      12395.819      66810.748      87120        
    990900   990900         8643.3383      293.97835      9419.3291      2955.7384      12375.068      66889.667      87120        
    991000   991000         8644.0296      298.75214      9448.6769      3003.7354      12452.412      67110.374      87120        
    991100   991100         8644.7146      304.35535      9441.5764      3060.0716      12501.648      66990.219      87120        
    991200   991200         8645.4548      300.92777      9446.111       3025.6098      12471.721      67002.096      87120        
    991300   991300         8646.311       298.24825      9452.8909      2998.6691      12451.56       67123.502      87120        
    991400   991400         8647.1728      297.08604      9482.2256      2986.984       12469.21       67195.1        87120        
    991500   991500         8648.0319      299.48586      9485.8744      3011.1123      12496.987      67121.22       87120        
    991600   991600         8648.9035      300.37503      9481.5594      3020.0523      12501.612      67080.578      87120        
    991700   991700         8649.7629      298.36767      9471.886       2999.8698      12471.756      67240.618      87120        
    991800   991800         8650.6191      305.04019      9385.7262      3066.9571      12452.683      66831.678      87120        
    991900   991900         8651.487       301.34079      9440.7662      3029.7623      12470.529      66871.623      87120        
    992000   992000         8652.3457      307.42621      9431.7077      3090.9468      12522.654      66893.722      87120        
    992100   992100         8653.2003      299.46315      9436.1006      3010.8841      12446.985      66924.075      87120        
    992200   992200         8654.0378      292.04223      9423.7238      2936.2721      12359.996      66828.584      87120        
    992300   992300         8654.8817      301.43205      9364.9147      3030.6799      12395.595      66654.449      87120        
    992400   992400         8655.6713      307.81117      9328.6833      3094.8173      12423.501      66411.26       87120        
    992500   992500         8656.3424      291.14752      9408.2863      2927.2764      12335.563      66649.044      87120        
    992600   992600         8657.0306      291.15104      9358.7045      2927.3118      12286.016      66513.685      87120        
    992700   992700         8657.7095      298.87512      9359.6962      3004.9719      12364.668      66596.701      87120        
    992800   992800         8658.4037      302.03664      9413.9608      3036.7586      12450.719      66871.355      87120        
    992900   992900         8659.0826      306.82845      9381.9681      3084.9368      12466.905      66696.149      87120        
    993000   993000         8659.7753      296.81917      9403.1738      2984.3007      12387.475      66776.511      87120        
    993100   993100         8660.5849      295.69772      9390.2736      2973.0254      12363.299      66808.567      87120        
    993200   993200         8661.4317      299.79169      9410.3068      3014.1873      12424.494      66903.186      87120        
    993300   993300         8662.294       301.73797      9435.7716      3033.7557      12469.527      66902.702      87120        
    993400   993400         8663.1453      301.39686      9453.0066      3030.3261      12483.333      67008.459      87120        
    993500   993500         8664.0076      297.94416      9396.448       2995.6117      12392.06       66930.77       87120        
    993600   993600         8664.8682      290.08862      9445.3327      2916.6299      12361.963      67031.936      87120        
    993700   993700         8665.7324      299.37504      9428.2219      3009.9981      12438.22       66941.592      87120        
    993800   993800         8666.5969      308.06224      9379.9685      3097.3416      12477.31       66804.378      87120        
    993900   993900         8667.4571      295.41927      9464.8679      2970.2257      12435.094      67045.15       87120        
    994000   994000         8668.3157      298.69961      9418.2183      3003.2072      12421.425      66922.686      87120        
    994100   994100         8669.1556      303.34946      9438.3979      3049.9581      12488.356      66981.744      87120        
    994200   994200         8669.8373      311.63405      9391.3262      3133.2536      12524.58       66897.166      87120        
    994300   994300         8670.5269      298.29628      9428.4894      2999.152       12427.641      66926.907      87120        
    994400   994400         8671.2234      296.40545      9395.6834      2980.1411      12375.824      66676.002      87120        
    994500   994500         8671.8965      297.38758      9360.3263      2990.0157      12350.342      66526.656      87120        
    994600   994600         8672.5855      303.68834      9322.2035      3053.3653      12375.569      66503.969      87120        
    994700   994700         8673.2926      308.27204      9339.9706      3099.4511      12439.422      66671.796      87120        
    994800   994800         8674.1074      302.93456      9373.5974      3045.7866      12419.384      66620.268      87120        
    994900   994900         8674.9592      294.80703      9367.8099      2964.0702      12331.88       66521.964      87120        
    995000   995000         8675.8059      295.77869      9389.5051      2973.8394      12363.345      66737.45       87120        
    995100   995100         8676.6512      301.55031      9379.0669      3031.8689      12410.936      66794.658      87120        
    995200   995200         8677.4844      302.26777      9367.8274      3039.0825      12406.91       66695.261      87120        
    995300   995300         8678.3328      300.75325      9365.809       3023.8551      12389.664      66580.272      87120        
    995400   995400         8679.172       298.54718      9384.4302      3001.6746      12386.105      66643.853      87120        
    995500   995500         8680.0303      300.61621      9397.0306      3022.4772      12419.508      66839.335      87120        
    995600   995600         8680.8801      298.97706      9446.9639      3005.9968      12452.961      67120.189      87120        
    995700   995700         8681.7452      297.48255      9455.9883      2990.9705      12446.959      67244.823      87120        
    995800   995800         8682.6023      295.26762      9492.5433      2968.701       12461.244      67242.901      87120        
    995900   995900         8683.4684      304.59226      9456.8377      3062.4535      12519.291      67059.646      87120        
    996000   996000         8684.2189      297.63587      9469.2486      2992.5121      12461.761      67035.502      87120        
    996100   996100         8684.9008      296.98681      9381.541       2985.9862      12367.527      66784.799      87120        
    996200   996200         8685.5885      294.61601      9385.3373      2962.1496      12347.487      66781.813      87120        
    996300   996300         8686.2744      304.1594       9384.2201      3058.1015      12442.322      66766.159      87120        
    996400   996400         8686.9743      306.72988      9360.7314      3083.9458      12444.677      66657.52       87120        
    996500   996500         8687.6658      295.78344      9428.7008      2973.8872      12402.588      66904.512      87120        
    996600   996600         8688.4186      304.11851      9329.3822      3057.6903      12387.073      66620.937      87120        
    996700   996700         8689.2817      296.69901      9368.1425      2983.0927      12351.235      66771.533      87120        
    996800   996800         8690.1195      294.21683      9382.9599      2958.1361      12341.096      66788.322      87120        
    996900   996900         8690.9708      303.78191      9377.4844      3054.3061      12431.79       66631.416      87120        
    997000   997000         8691.822       307.2638       9359.8338      3089.314       12449.148      66609.356      87120        
    997100   997100         8692.6629      297.17382      9392.9104      2987.8665      12380.777      66764.869      87120        
    997200   997200         8693.5116      295.55105      9431.9297      2971.5508      12403.48       66983.988      87120        
    997300   997300         8694.3669      299.47756      9450.6288      3011.0289      12461.658      67082.247      87120        
    997400   997400         8695.2208      304.83926      9426.0465      3064.9369      12490.983      67012.394      87120        
    997500   997500         8696.0757      309.02827      9382.9986      3107.0543      12490.053      66846.297      87120        
    997600   997600         8696.9154      296.18057      9388.4322      2977.8801      12366.312      66687.153      87120        
    997700   997700         8697.682       299.66635      9353.9682      3012.9271      12366.895      66713.861      87120        
    997800   997800         8698.3693      301.81401      9364.261       3034.5202      12398.781      66747.204      87120        
    997900   997900         8699.0565      304.31569      9388.8071      3059.6729      12448.48       66799.601      87120        
    998000   998000         8699.7352      306.96581      9365.976       3086.3178      12452.294      66685.25       87120        
    998100   998100         8700.4163      296.20167      9364.9284      2978.0922      12343.021      66705.294      87120        
    998200   998200         8701.1112      295.89264      9392.9009      2974.9852      12367.886      66812.292      87120        
    998300   998300         8701.8189      301.18924      9413.4785      3028.2387      12441.717      66899.345      87120        
    998400   998400         8702.6779      306.7122       9386.3649      3083.768       12470.133      66858.894      87120        
    998500   998500         8703.5387      298.1561       9431.9898      2997.7426      12429.732      67024.922      87120        
    998600   998600         8704.401       295.09692      9447.2067      2966.9848      12414.191      66991.64       87120        
    998700   998700         8705.2556      300.82151      9393.1523      3024.5414      12417.694      66800.917      87120        
    998800   998800         8706.0992      296.81084      9412.8412      2984.217       12397.058      66904.656      87120        
    998900   998900         8706.9438      302.32651      9362.8386      3039.6731      12402.512      66744.911      87120        
    999000   999000         8707.7951      297.01321      9394.9223      2986.2517      12381.174      66790.073      87120        
    999100   999100         8708.6201      300.96391      9363.2597      3025.9731      12389.233      66635.681      87120        
    999200   999200         8709.4482      301.88134      9313.914       3035.1972      12349.111      66447.557      87120        
    999300   999300         8710.2917      293.63542      9285.6758      2952.2904      12237.966      66402.119      87120        
    999400   999400         8711.1072      291.36289      9298.293       2929.4418      12227.735      66474.105      87120        
    999500   999500         8711.9583      296.37115      9344.8485      2979.7963      12324.645      66643.471      87120        
    999600   999600         8712.6363      300.1082       9331.8176      3017.3696      12349.187      66493.396      87120        
    999700   999700         8713.3097      299.68261      9366.7057      3013.0905      12379.796      66558.238      87120        
    999800   999800         8713.9863      300.80587      9407.1655      3024.3842      12431.55       66853.166      87120        
    999900   999900         8714.6757      302.4815       9375.3142      3041.2314      12416.546      66933.29       87120        
   1000000   1000000        8715.3598      291.90435      9413.8491      2934.8859      12348.735      66929.12       87120        
Loop time of 8715.36 on 8 procs for 1000000 steps with 4369 atoms

Performance: 9.914 ns/day, 2.421 hours/ns, 114.740 timesteps/s, 501.299 katom-step/s
98.9% CPU use with 8 MPI tasks x no OpenMP threads

MPI task timing breakdown:
Section |  min time  |  avg time  |  max time  |%varavg| %total
---------------------------------------------------------------
Pair    | 284.28     | 2214.5     | 7214.2     |6060.1 | 25.41
Bond    | 4.9405     | 30.981     | 41.789     | 268.5 |  0.36
Neigh   | 959.76     | 964.49     | 969.48     |  12.1 | 11.07
Comm    | 269.94     | 5213       | 7117.2     |3905.2 | 59.81
Output  | 1.6212     | 1.7226     | 1.9513     |   7.5 |  0.02
Modify  | 228.33     | 254.55     | 277.93     | 114.4 |  2.92
Other   |            | 36.14      |            |       |  0.41

Nlocal:        546.125 ave        1407 max         101 min
Histogram: 2 2 2 0 0 0 0 0 0 2
Nghost:        4719.25 ave        6301 max        1452 min
Histogram: 2 0 0 0 0 0 0 2 0 4
Neighs:         179774 ave      568587 max       14174 min
Histogram: 4 2 0 0 0 0 0 0 0 2

Total # of neighbors = 1438188
Ave neighs/atom = 329.18013
Ave special neighs/atom = 6.3401236
Neighbor list builds = 75540
Dangerous builds = 0
unfix                  mynvt


write_data             nvt_2ns.data
System init for write_data ...
Generated 21 of 21 mixed pair_coeff terms from arithmetic mixing rule
WARNING: Dihedrals are defined but no dihedral style is set (../force.cpp:207)
WARNING: Likewise 1-4 special neighbor interactions != 1.0 (../force.cpp:209)
WARNING: Impropers are defined but no improper style is set (../force.cpp:212)
Total wall time: 2:25:15
