LAMMPS (29 Aug 2024)
units                  real
atom_style	       full
bond_style	       harmonic
angle_style	       harmonic
boundary	       p p p

neighbor 2.0 bin
neigh_modify every 1 delay 0 check yes

# ============= read data and parameters files

pair_style            lj/cut 10.0
pair_modify           shift yes mix arithmetic

read_data             equilb_300ps.data
Reading data file ...
  orthogonal box = (-0.1495 -0.193001 -38.75) to (32.8505 32.806999 41.25)
  1 by 2 by 4 MPI processor grid
  reading atoms ...
  4363 atoms
  reading velocities ...
  4363 velocities
  scanning bonds ...
  4 = max bonds/atom
  scanning angles ...
  6 = max angles/atom
  scanning dihedrals ...
  8 = max dihedrals/atom
  scanning impropers ...
  2 = max impropers/atom
  orthogonal box = (-0.1495 -0.193001 -38.75) to (32.8505 32.806999 41.25)
  1 by 2 by 4 MPI processor grid
  reading bonds ...
  3927 bonds
  reading angles ...
  4665 angles
  reading dihedrals ...
  6903 dihedrals
  reading impropers ...
  1144 impropers
Finding 1-2 1-3 1-4 neighbors ...
  special bond factors lj:    0        0        0       
  special bond factors coul:  0        0        0       
     4 = max # of 1-2 neighbors
     6 = max # of 1-3 neighbors
    18 = max # of 1-4 neighbors
    18 = max # of special neighbors
  special bonds CPU = 0.001 seconds
  read_data CPU = 0.084 seconds

pair_coeff  1  1      0.0859  3.3997
pair_coeff  2  2      0.0659  3.5000
pair_coeff  3  3      0.0859  3.3997
pair_coeff  4  4      0.0859  3.3997
pair_coeff  5  5      0.0299  2.5000
pair_coeff  6  6      0.0000  1.0000
pair_coeff  7  7      0.1521  3.1507

bond_coeff     1      938.0    1.42
bond_coeff     2      661.2    1.10
bond_coeff     3      938.0    1.42
bond_coeff     4      938.0    1.42
bond_coeff     5      450.0    0.9572

angle_coeff    1      126      120.0
angle_coeff    2      126      120.0
angle_coeff    3      126      120.0
angle_coeff    4      78.8     109.5
angle_coeff    5      55.0     104.52


group  water     type 6  7
2985 atoms in group water
group  memb      type 1
432 atoms in group memb
group  CG1       type 3
448 atoms in group CG1
group  CG2       type 4
448 atoms in group CG2
group  CG3       type 3 4
896 atoms in group CG3


compute 9 all pe/atom

dump dump_1 all custom 1000 dump.lammpstrj id type x y z

timestep 1.0
thermo_style custom step time cpu temp pe ke etotal press vol
thermo 100

fix                    myshk1  water shake 1.0e-5 200 0 b 5 a 5
Finding SHAKE clusters ...
       0 = # of size 2 clusters
       0 = # of size 3 clusters
       0 = # of size 4 clusters
     995 = # of frozen angles
  find clusters CPU = 0.000 seconds

fix                    freeze memb setforce 0.0 0.0 0.0

fix                    pistonkeep CG3  setforce  0.0   0.0    NULL
fix                    myforce1   CG1  aveforce  NULL  NULL  -1.439     #P=250 bars
fix                    freeze1    CG2  setforce 0.0 0.0 0.0

fix                    mynvt  all nvt temp 300 300 100.0
run                    1000000

CITE-CITE-CITE-CITE-CITE-CITE-CITE-CITE-CITE-CITE-CITE-CITE-CITE

Your simulation uses code contributions which should be cited:

- Type Label Framework: https://doi.org/10.1021/acs.jpcb.3c08419

@Article{Gissinger24,
 author = {Jacob R. Gissinger, Ilia Nikiforov, Yaser Afshar, Brendon Waters, Moon-ki Choi, Daniel S. Karls, Alexander Stukowski, Wonpil Im, Hendrik Heinz, Axel Kohlmeyer, and Ellad B. Tadmor},
 title = {Type Label Framework for Bonded Force Fields in LAMMPS},
 journal = {J. Phys. Chem. B},
 year =    2024,
 volume =  128,
 number =  13,
 pages =   {3282–-3297}
}

CITE-CITE-CITE-CITE-CITE-CITE-CITE-CITE-CITE-CITE-CITE-CITE-CITE

Generated 21 of 21 mixed pair_coeff terms from arithmetic mixing rule
WARNING: Dihedrals are defined but no dihedral style is set (../force.cpp:207)
WARNING: Likewise 1-4 special neighbor interactions != 1.0 (../force.cpp:209)
WARNING: Impropers are defined but no improper style is set (../force.cpp:212)
Neighbor list info ...
  update: every = 1 steps, delay = 0 steps, check = yes
  max neighbors/atom: 2000, page size: 100000
  master list distance cutoff = 12
  ghost atom cutoff = 12
  binsize = 6, bins = 6 6 14
  1 neighbor lists, perpetual/occasional/extra = 1 0 0
  (1) pair lj/cut, perpetual
      attributes: half, newton on
      pair build: half/bin/newton
      stencil: half/bin/3d
      bin: standard
Per MPI rank memory allocation (min/avg/max) = 13.73 | 14.19 | 14.79 Mbytes
   Step          Time           CPU            Temp          PotEng         KinEng         TotEng         Press          Volume    
         0   0              0              299.07195      7986.8745      3001.602       10988.477      57941.206      87120        
       100   100            0.33668794     309.05787      8002.6895      3101.8245      11104.514      58087.381      87120        
       200   200            0.68801826     320.62399      8045.1147      3217.9066      11263.021      58487.629      87120        
       300   300            1.043152       336.57904      8083.0096      3378.0377      11461.047      58824.149      87120        
       400   400            1.3922395      348.81715      8154.7018      3500.864       11655.566      59381.554      87120        
       500   500            1.762155       352.12599      8259.7843      3534.0729      11793.857      60084.861      87120        
       600   600            2.1683018      361.18163      8241.1358      3624.9588      11866.095      60338.162      87120        
       700   700            2.6118784      356.00435      8314.8893      3572.9976      11887.887      60868.611      87120        
       800   800            3.084349       359.51529      8301.1696      3608.2347      11909.404      61131.345      87120        
       900   900            3.5984542      354.93869      8363.4844      3562.3022      11925.787      61615.482      87120        
      1000   1000           4.143743       349.19639      8439.7303      3504.6703      11944.401      62170.608      87120        
      1100   1100           4.7174611      337.9916       8559.0442      3392.2146      11951.259      62842.974      87120        
      1200   1200           5.3281395      328.38117      8713.7782      3295.7607      12009.539      63707.008      87120        
      1300   1300           5.9581325      315.01452      9001.3246      3161.6078      12162.932      65088.327      87120        
      1400   1400           6.6128415      300.17187      9415.5721      3012.6412      12428.213      66992.059      87120        
      1500   1500           7.3377957      284.85765      9950.2522      2858.9417      12809.194      69297.37       87120        
      1600   1600           8.0794657      281.60776      10492.325      2826.3246      13318.65       71457.81       87120        
      1700   1700           8.8442284      293.97057      10911.864      2950.4025      13862.266      73094.886      87120        
      1800   1800           9.6277811      316.14976      10999.205      3173.0014      14172.206      73455.579      87120        
      1900   1900           10.416167      320.14141      10795.545      3213.0633      14008.609      72641.776      87120        
      2000   2000           11.19426       317.68997      10203.66       3188.4596      13392.12       70322.463      87120        
      2100   2100           12.027397      296.56576      9744.447       2976.4489      12720.896      68338.637      87120        
      2200   2200           12.786727      286.89297      9285.5684      2879.369       12164.937      66364.863      87120        
      2300   2300           13.503677      287.47673      8947.1789      2885.2278      11832.407      64830.839      87120        
      2400   2400           14.196891      288.48454      8794.1095      2895.3426      11689.452      63951.467      87120        
      2500   2500           14.925347      296.39191      8619.2571      2974.704       11593.961      63064.26       87120        
      2600   2600           15.596872      294.01572      8572.0574      2950.8557      11522.913      62671.322      87120        
      2700   2700           16.252415      299.83868      8442.7673      3009.2972      11452.064      61989.637      87120        
      2800   2800           16.886338      299.32683      8425.515       3004.16        11429.675      61799.701      87120        
      2900   2900           17.501729      300.48082      8442.9094      3015.7419      11458.651      61782.225      87120        
      3000   3000           18.118983      306.3086       8424.5156      3074.2317      11498.747      61665.942      87120        
      3100   3100           18.721536      303.00331      8461.9073      3041.0586      11502.966      61687.486      87120        
      3200   3200           19.346408      302.02593      8497.0902      3031.2493      11528.34       61809.739      87120        
      3300   3300           19.966509      307.43612      8474.0239      3085.548       11559.572      61815.705      87120        
      3400   3400           20.595403      302.68958      8494.4887      3037.9099      11532.399      61991.454      87120        
      3500   3500           21.236429      299.46673      8539.1044      3005.5642      11544.669      62293.109      87120        
      3600   3600           21.879684      299.11956      8656.2606      3002.0798      11658.34       62873.792      87120        
      3700   3700           22.538587      305.89348      8741.5848      3070.0654      11811.65       63359.006      87120        
      3800   3800           23.207521      305.98748      8844.5863      3071.0089      11915.595      63961.116      87120        
      3900   3900           23.909262      304.35105      8962.8237      3054.585       12017.409      64609.085      87120        
      4000   4000           24.613124      297.93404      9158.182       2990.1814      12148.363      65500.365      87120        
      4100   4100           25.331398      302.99005      9263.0387      3040.9255      12303.964      66078.467      87120        
      4200   4200           26.079203      294.05288      9495.8384      2951.2286      12447.067      66970.552      87120        
      4300   4300           26.858014      295.14398      9657.8916      2962.1793      12620.071      67665.918      87120        
      4400   4400           27.63195       306.48366      9741.8283      3075.9888      12817.817      68167.877      87120        
      4500   4500           28.417043      303.65422      9826.1312      3047.5914      12873.723      68449.345      87120        
      4600   4600           29.202658      303.88052      9654.9566      3049.8626      12704.819      67817.341      87120        
      4700   4700           29.989213      293.22199      9543.9767      2942.8895      12486.866      67267.082      87120        
      4800   4800           30.773089      299.71234      9313.5365      3008.0292      12321.566      66288.623      87120        
      4900   4900           31.544061      296.00817      9211.6933      2970.8527      12182.546      65739.784      87120        
      5000   5000           32.297793      296.02322      9102.1184      2971.0037      12073.122      65211.839      87120        
      5100   5100           33.016801      301.42528      8922.5202      3025.2209      11947.741      64487.17       87120        
      5200   5200           33.727968      301.46096      8782.583       3025.579       11808.162      63815.157      87120        
      5300   5300           34.425485      298.88781      8737.1087      2999.7538      11736.863      63506.884      87120        
      5400   5400           35.121155      300.61379      8678.7963      3017.0765      11695.873      63117.068      87120        
      5500   5500           35.810459      302.1845       8653.9375      3032.8408      11686.778      63010.036      87120        
      5600   5600           36.512861      295.83974      8700.8583      2969.1622      11670.021      63132.063      87120        
      5700   5700           37.220436      309.14887      8609.7919      3102.7378      11712.53       62832.301      87120        
      5800   5800           37.916692      299.92357      8718.6904      3010.1492      11728.84       63153.842      87120        
      5900   5900           38.620494      303.03914      8706.5643      3041.4182      11747.982      63131.232      87120        
      6000   6000           39.309346      302.5124       8692.0575      3036.1316      11728.189      63140.741      87120        
      6100   6100           39.980515      292.58794      8849.3424      2936.5259      11785.868      63828.53       87120        
      6200   6200           40.662742      300.14658      8879.5268      3012.3874      11891.914      64022.926      87120        
      6300   6300           41.341842      301.64101      8968.438       3027.3861      11995.824      64455.714      87120        
      6400   6400           42.041487      303.67308      8999.4663      3047.7807      12047.247      64730.593      87120        
      6500   6500           42.762131      301.47208      9128.6958      3025.6906      12154.386      65294.387      87120        
      6600   6600           43.498814      306.87926      9153.2045      3079.9591      12233.164      65448.14       87120        
      6700   6700           44.247067      297.50006      9287.8533      2985.8259      12273.679      65980.915      87120        
      6800   6800           44.994433      299.10866      9360.459       3001.9704      12362.429      66246.417      87120        
      6900   6900           45.760677      300.1517       9387.1968      3012.4387      12399.636      66401.978      87120        
      7000   7000           46.515786      296.0209       9322.679       2970.9804      12293.659      66120.943      87120        
      7100   7100           47.247886      286.97667      9313.3471      2880.209       12193.556      66037.515      87120        
      7200   7200           47.993444      301.72906      9185.4357      3028.2698      12213.705      65605.026      87120        
      7300   7300           48.75058       303.02911      9147.5416      3041.3175      12188.859      65470.461      87120        
      7400   7400           49.498636      295.83994      9126.8726      2969.1643      12096.037      65293.503      87120        
      7500   7500           50.235399      291.96104      8986.2402      2930.2341      11916.474      64670.357      87120        
      7600   7600           50.960297      291.91392      8925.9895      2929.7612      11855.751      64413.665      87120        
      7700   7700           51.693816      301.04317      8863.2478      3021.3859      11884.634      64073.404      87120        
      7800   7800           52.408454      302.97568      8823.7449      3040.7813      11864.526      63938.37       87120        
      7900   7900           53.093038      301.52975      8841.3731      3026.2694      11867.642      63942.339      87120        
      8000   8000           53.788275      303.06161      8844.8193      3041.6438      11886.463      63865.857      87120        
      8100   8100           54.463517      303.66258      8835.886       3047.6753      11883.561      63830.491      87120        
      8200   8200           55.130917      298.26436      8842.0938      2993.4967      11835.59       63853.253      87120        
      8300   8300           55.795455      292.99433      8839.7476      2940.6046      11780.352      63875.955      87120        
      8400   8400           56.482011      302.25469      8844.7167      3033.5451      11878.262      63966.655      87120        
      8500   8500           57.165452      304.53346      8949.3962      3056.4158      12005.812      64346.216      87120        
      8600   8600           57.857281      304.17467      9006.7         3052.8149      12059.515      64619.179      87120        
      8700   8700           58.572318      299.15621      9080.5901      3002.4477      12083.038      64941.499      87120        
      8800   8800           59.293402      303.30935      9081.5259      3044.1302      12125.656      65047.871      87120        
      8900   8900           60.029976      298.03396      9111.3516      2991.1843      12102.536      65145.441      87120        
      9000   9000           60.77137       300.91516      9111.6614      3020.1012      12131.763      65195.334      87120        
      9100   9100           61.487848      302.20667      9119.0618      3033.0632      12152.125      65247.571      87120        
      9200   9200           62.223506      301.5003       9110.0326      3025.9738      12136.006      65202.839      87120        
      9300   9300           62.951307      287.53513      9126.2045      2885.814       12012.018      65231.006      87120        
      9400   9400           63.673957      290.66337      9090.349       2917.2102      12007.559      65060.351      87120        
      9500   9500           64.395849      301.73384      9055.1894      3028.3177      12083.507      64999.686      87120        
      9600   9600           65.125845      300.49803      9092.0841      3015.9146      12107.999      65066.339      87120        
      9700   9700           65.866477      299.74863      9089.7163      3008.3934      12098.11       65041.072      87120        
      9800   9800           66.592318      303.59616      9022.874       3047.0087      12069.883      64740.869      87120        
      9900   9900           67.308997      309.75553      8897.3122      3108.8265      12006.139      64267.189      87120        
     10000   10000          68.028709      297.60934      8847.1479      2986.9226      11834.07       63964.461      87120        
     10100   10100          68.716221      294.07016      8831.149       2951.402       11782.551      63843.576      87120        
     10200   10200          69.418278      301.26942      8851.6156      3023.6567      11875.272      64004.42       87120        
     10300   10300          70.127271      302.74059      8865.1339      3038.4218      11903.556      64001.042      87120        
     10400   10400          70.825644      298.10618      8904.4751      2991.9092      11896.384      64091.629      87120        
     10500   10500          71.536592      300.49096      8823.6836      3015.8437      11839.527      63813.232      87120        
     10600   10600          72.25171       295.08759      8841.0236      2961.6134      11802.637      63862.203      87120        
     10700   10700          72.955038      302.09861      8902.7815      3031.9787      11934.76       64143.449      87120        
     10800   10800          73.671296      307.91249      8938.8561      3090.329       12029.185      64372.66       87120        
     10900   10900          74.4016        302.00988      8996.6901      3031.0882      12027.778      64661.013      87120        
     11000   11000          75.124419      295.27372      9055.1528      2963.4815      12018.634      64857.215      87120        
     11100   11100          75.844071      302.84293      9029.0699      3039.449       12068.519      64814.935      87120        
     11200   11200          76.575828      301.37397      9063.3819      3024.7059      12088.088      64959.035      87120        
     11300   11300          77.31874       298.83597      9039.81        2999.2336      12039.044      64878.001      87120        
     11400   11400          78.050858      296.84447      9046.8457      2979.2461      12026.092      64846.746      87120        
     11500   11500          78.787497      305.21136      9024.8795      3063.2194      12088.099      64837.911      87120        
     11600   11600          79.515826      301.20137      9098.0409      3022.9736      12121.015      65075.067      87120        
     11700   11700          80.245547      310.923        9049.1713      3120.5437      12169.715      64915.403      87120        
     11800   11800          80.976018      303.22907      9015.7405      3043.3244      12059.065      64779.51       87120        
     11900   11900          81.706476      300.72395      8957.6243      3018.182       11975.806      64543.268      87120        
     12000   12000          82.427227      295.36489      8966.6618      2964.3964      11931.058      64511.923      87120        
     12100   12100          83.146096      294.23798      8984.1032      2953.0864      11937.19       64512.386      87120        
     12200   12200          83.864282      303.15581      8943.6834      3042.5892      11986.273      64377.476      87120        
     12300   12300          84.565601      301.54299      8927.8462      3026.4022      11954.248      64244.13       87120        
     12400   12400          85.291862      293.32326      8958.5049      2943.9059      11902.411      64312.437      87120        
     12500   12500          86.008067      297.75034      8950.7417      2988.3377      11939.079      64278.674      87120        
     12600   12600          86.729962      309.47507      8923.0939      3106.0117      12029.106      64237.36       87120        
     12700   12700          87.450476      301.97172      8943.7795      3030.7052      11974.485      64315.82       87120        
     12800   12800          88.15989       301.44301      8923.5955      3025.3988      11948.994      64258.724      87120        
     12900   12900          88.872079      298.88381      8912.0086      2999.7137      11911.722      64222.497      87120        
     13000   13000          89.585518      298.74387      8929.7205      2998.3093      11928.03       64217.325      87120        
     13100   13100          90.304028      305.60369      8970.0034      3067.157       12037.16       64387.856      87120        
     13200   13200          91.022689      306.04833      8968.8386      3071.6196      12040.458      64376.285      87120        
     13300   13300          91.742216      297.88785      8979.7451      2989.7179      11969.463      64415.081      87120        
     13400   13400          92.464742      301.18775      8977.6903      3022.837       12000.527      64477.192      87120        
     13500   13500          93.185648      301.10506      8988.4082      3022.0071      12010.415      64528.304      87120        
     13600   13600          93.913155      298.76581      8948.6508      2998.5294      11947.18       64340.178      87120        
     13700   13700          94.627475      287.94918      8999.7474      2889.9695      11889.717      64486.852      87120        
     13800   13800          95.343416      296.75416      8997.582       2978.3398      11975.922      64543.873      87120        
     13900   13900          96.057747      308.40307      8913.16        3095.2527      12008.413      64238.129      87120        
     14000   14000          96.769948      295.94882      8980.7535      2970.257       11951.01       64431.422      87120        
     14100   14100          97.479556      296.96638      8965.0975      2980.4697      11945.567      64391.72       87120        
     14200   14200          98.19403       301.77379      8960.1917      3028.7187      11988.91       64345.776      87120        
     14300   14300          98.911547      306.14368      8993.5784      3072.5766      12066.155      64487.59       87120        
     14400   14400          99.616196      311.23833      8971.9297      3123.7085      12095.638      64399.542      87120        
     14500   14500          100.32694      299.656        9007.7215      3007.4637      12015.185      64553.707      87120        
     14600   14600          101.03964      297.16752      9016.9895      2982.4884      11999.478      64538.725      87120        
     14700   14700          101.75189      295.64158      9065.4441      2967.1734      12032.618      64738.586      87120        
     14800   14800          102.44779      304.20206      9018.9677      3053.0897      12072.057      64537.852      87120        
     14900   14900          103.14833      301.22359      9017.1242      3023.1966      12040.321      64544.947      87120        
     15000   15000          103.86767      289.88989      9018.4088      2909.4472      11927.856      64516.287      87120        
     15100   15100          104.56529      297.0985       8963.4506      2981.7956      11945.246      64308.25       87120        
     15200   15200          105.269        301.46428      8966.9051      3025.6123      11992.517      64285.974      87120        
     15300   15300          105.98927      301.07554      8973.7115      3021.7108      11995.422      64284.081      87120        
     15400   15400          106.69265      297.2891       8867.7052      2983.7086      11851.414      63917.396      87120        
     15500   15500          107.39887      301.29463      8813.074       3023.9097      11836.984      63772.023      87120        
     15600   15600          108.10196      299.89742      8840.8378      3009.8867      11850.724      63856.814      87120        
     15700   15700          108.81805      300.19376      8921.8487      3012.8609      11934.71       64110.381      87120        
     15800   15800          109.53036      309.66335      8917.7268      3107.9013      12025.628      64164.488      87120        
     15900   15900          110.23829      298.57234      8953.4973      2996.5877      11950.085      64239.97       87120        
     16000   16000          110.94902      303.84022      8899.0469      3049.4582      11948.505      64065.91       87120        
     16100   16100          111.64875      306.11266      8875.1688      3072.2653      11947.434      64032.11       87120        
     16200   16200          112.35357      297.59379      8934.0671      2986.7666      11920.834      64269.147      87120        
     16300   16300          113.05379      294.75813      8985.9419      2958.3068      11944.249      64468.732      87120        
     16400   16400          113.74799      303.73401      8939.3923      3048.3922      11987.784      64328.481      87120        
     16500   16500          114.46052      298.88332      8964.1646      2999.7088      11963.873      64389.385      87120        
     16600   16600          115.15252      285.50944      8980.3919      2865.4834      11845.875      64391.475      87120        
     16700   16700          115.85629      300.90932      8904.7412      3020.0425      11924.784      64141.613      87120        
     16800   16800          116.56132      302.49815      8984.6272      3035.9887      12020.616      64509.874      87120        
     16900   16900          117.27899      306.215        8981.7062      3073.2923      12054.999      64514.954      87120        
     17000   17000          117.9963       299.06979      8970.3757      3001.5803      11971.956      64466.849      87120        
     17100   17100          118.70313      299.75426      8923.1477      3008.4499      11931.598      64308.339      87120        
     17200   17200          119.40608      298.13136      8963.3728      2992.1619      11955.535      64429.578      87120        
     17300   17300          120.11137      302.31445      8941.7715      3034.1449      11975.916      64309.766      87120        
     17400   17400          120.8192       305.41317      8886.3361      3065.2449      11951.581      64134.555      87120        
     17500   17500          121.52371      300.59755      8869.7727      3016.9135      11886.686      64012.68       87120        
     17600   17600          122.23652      291.1213       8955.0004      2921.8062      11876.807      64289.688      87120        
     17700   17700          122.95303      303.6592       8930.8745      3047.6413      11978.516      64199.127      87120        
     17800   17800          123.65737      303.38196      8928.2688      3044.8589      11973.128      64212.882      87120        
     17900   17900          124.36796      299.42022      8918.4458      3005.0973      11923.543      64186.927      87120        
     18000   18000          125.0801       290.67066      8970.0397      2917.2834      11887.323      64317.083      87120        
     18100   18100          125.78524      302.54338      8924.5762      3036.4426      11961.019      64229.643      87120        
     18200   18200          126.48122      301.07856      8964.1911      3021.7411      11985.932      64372.848      87120        
     18300   18300          127.19025      295.02663      8925.4555      2961.0015      11886.457      64247.298      87120        
     18400   18400          127.87993      298.56708      8866.9853      2996.5349      11863.52       64006.945      87120        
     18500   18500          128.58899      303.61404      8884.8448      3047.1881      11932.033      64064.238      87120        
     18600   18600          129.29467      302.28252      8964.8485      3033.8245      11998.673      64271.067      87120        
     18700   18700          130.00366      308.12518      8966.6966      3092.4637      12059.16       64299.462      87120        
     18800   18800          130.7103       300.61607      8976.7055      3017.0994      11993.805      64362.609      87120        
     18900   18900          131.42956      296.99143      8999.4428      2980.7211      11980.164      64486.854      87120        
     19000   19000          132.15091      302.81654      8978.8796      3039.1841      12018.064      64469.283      87120        
     19100   19100          132.85202      303.99762      8979.366       3051.0379      12030.404      64475.219      87120        
     19200   19200          133.56112      294.59508      8997.5477      2956.6704      11954.218      64520.223      87120        
     19300   19300          134.2634       295.90758      8968.0304      2969.8431      11937.874      64414.026      87120        
     19400   19400          134.9703       307.08587      8931.3731      3082.0328      12013.406      64331.92       87120        
     19500   19500          135.67763      295.3156       9053.8461      2963.9018      12017.748      64631.158      87120        
     19600   19600          136.37752      303.76916      8993.1432      3048.745       12041.888      64474.533      87120        
     19700   19700          137.0878       300.0657       8958.4893      3011.5756      11970.065      64308.168      87120        
     19800   19800          137.7998       295.26418      8918.6974      2963.3857      11882.083      64196.944      87120        
     19900   19900          138.50835      298.92301      8894.8345      3000.1071      11894.942      64135.936      87120        
     20000   20000          139.2085       299.38062      8900.2021      3004.6999      11904.902      64176.108      87120        
     20100   20100          139.90477      302.56473      8893.269       3036.6568      11929.926      64045.662      87120        
     20200   20200          140.58951      305.28724      8898.8099      3063.981       11962.791      63976.48       87120        
     20300   20300          141.28817      294.72137      8922.3006      2957.9379      11880.238      64086.647      87120        
     20400   20400          141.99007      293.49982      8869.1159      2945.6779      11814.794      63962.269      87120        
     20500   20500          142.69506      300.19746      8870.7235      3012.898       11883.622      63966.135      87120        
     20600   20600          143.40444      301.18457      8922.2757      3022.805       11945.081      64103.54       87120        
     20700   20700          144.1058       302.10288      8929.1275      3032.0216      11961.149      64084.31       87120        
     20800   20800          144.7951       299.15636      8963.0381      3002.4491      11965.487      64235.216      87120        
     20900   20900          145.48727      302.23177      8879.8695      3033.3151      11913.185      64009.883      87120        
     21000   21000          146.17523      292.58079      8923.7332      2936.4542      11860.187      64172.32       87120        
     21100   21100          146.85972      302.36353      8891.5172      3034.6375      11926.155      64101.632      87120        
     21200   21200          147.539        302.8191       8947.4855      3039.2098      11986.695      64224.767      87120        
     21300   21300          148.22071      303.39422      8965.643       3044.9819      12010.625      64338.031      87120        
     21400   21400          148.9114       301.21346      8972.6892      3023.0949      11995.784      64370.496      87120        
     21500   21500          149.59429      301.29179      8959.6214      3023.8811      11983.503      64386.003      87120        
     21600   21600          150.29166      299.0627       8990.346       3001.5091      11991.855      64456.841      87120        
     21700   21700          150.98962      298.79232      8986.7666      2998.7955      11985.562      64393.218      87120        
     21800   21800          151.6783       300.63169      8966.62        3017.2561      11983.876      64332.366      87120        
     21900   21900          152.35518      301.58873      8953.9289      3026.8614      11980.79       64273.055      87120        
     22000   22000          153.05434      299.41871      8987.7175      3005.0822      11992.8        64408.579      87120        
     22100   22100          153.7477       300.73395      8980.4622      3018.2824      11998.745      64392.358      87120        
     22200   22200          154.4392       302.206        8932.0799      3033.0565      11965.136      64213.781      87120        
     22300   22300          155.13005      288.72848      8907.3852      2897.7909      11805.176      64035.279      87120        
     22400   22400          155.81619      289.96841      8922.725       2910.2353      11832.96       64040.765      87120        
     22500   22500          156.49998      300.44699      8913.005       3015.4024      11928.407      64033.547      87120        
     22600   22600          157.18364      305.49449      8872.3581      3066.0611      11938.419      63934.388      87120        
     22700   22700          157.86612      297.76845      8883.2101      2988.5195      11871.73       63948.319      87120        
     22800   22800          158.53738      301.91624      8848.8979      3030.1484      11879.046      63874.452      87120        
     22900   22900          159.21253      296.1128       8921.9687      2971.9028      11893.871      64069.877      87120        
     23000   23000          159.90553      302.49597      8908.1945      3035.9667      11944.161      64005.44       87120        
     23100   23100          160.58936      309.19686      8898.3407      3103.2194      12001.56       63978.072      87120        
     23200   23200          161.25553      298.93266      8960.4922      3000.204       11960.696      64209.256      87120        
     23300   23300          161.93125      299.99642      8932.2196      3010.8803      11943.1        64155.982      87120        
     23400   23400          162.61361      296.81447      8973.9408      2978.945       11952.886      64311.191      87120        
     23500   23500          163.29069      303.04069      8929.799       3041.4338      11971.233      64136.978      87120        
     23600   23600          163.97954      305.13434      8995.1037      3062.4465      12057.55       64444.879      87120        
     23700   23700          164.67137      311.7716       8967.4205      3129.0606      12096.481      64321.72       87120        
     23800   23800          165.36355      300.92456      8987.764       3020.1954      12007.959      64335.672      87120        
     23900   23900          166.0559       297.75185      9008.8669      2988.3529      11997.22       64449.487      87120        
     24000   24000          166.76036      301.03227      8969.6454      3021.2765      11990.922      64331.391      87120        
     24100   24100          167.46036      306.07114      8933.3739      3071.8486      12005.222      64223.476      87120        
     24200   24200          168.15243      300.44302      8956.9396      3015.3626      11972.302      64250.934      87120        
     24300   24300          168.84665      296.70487      8906.6424      2977.845       11884.487      64006.766      87120        
     24400   24400          169.54231      289.1634       8943.6345      2902.1559      11845.79       64085.228      87120        
     24500   24500          170.23564      303.29541      8884.0128      3043.9902      11928.003      63907.97       87120        
     24600   24600          170.91872      300.67588      8907.5288      3017.6997      11925.229      63970.785      87120        
     24700   24700          171.6131       300.56071      8907.7233      3016.5438      11924.267      64017.157      87120        
     24800   24800          172.30398      295.10727      8936.8366      2961.8109      11898.647      64115.71       87120        
     24900   24900          172.98746      301.30534      8897.9707      3024.0172      11921.988      63993.579      87120        
     25000   25000          173.67618      300.9667       8926.999       3020.6184      11947.617      64114.244      87120        
     25100   25100          174.35631      301.60616      8947.7229      3027.0363      11974.759      64171.368      87120        
     25200   25200          175.03976      301.80712      8906.111       3029.0532      11935.164      64083.357      87120        
     25300   25300          175.72732      298.05849      8900.373       2991.4305      11891.804      64066.975      87120        
     25400   25400          176.40327      298.45625      8941.0924      2995.4226      11936.515      64202.113      87120        
     25500   25500          177.07733      303.98285      8932.9569      3050.8896      11983.847      64232.076      87120        
     25600   25600          177.74276      300.77237      8953.8554      3018.6681      11972.523      64267.961      87120        
     25700   25700          178.40982      294.01124      8897.8452      2950.8107      11848.656      64090.418      87120        
     25800   25800          179.09219      296.12204      8938.5373      2971.9955      11910.533      64257.457      87120        
     25900   25900          179.7769       299.2423       9026.3592      3003.3116      12029.671      64600.104      87120        
     26000   26000          180.47354      309.2887       8973.5787      3104.1413      12077.72       64428.737      87120        
     26100   26100          181.14681      300.70157      9002.0917      3017.9575      12020.049      64538.916      87120        
     26200   26200          181.82876      298.97657      8976.972       3000.6447      11977.617      64443.509      87120        
     26300   26300          182.51239      296.97406      8999.0577      2980.5467      11979.604      64479.95       87120        
     26400   26400          183.19338      301.68791      8971.6463      3027.8568      11999.503      64330.726      87120        
     26500   26500          183.87669      303.37599      8916.2205      3044.799       11961.02       64143.728      87120        
     26600   26600          184.56728      289.49482      8942.1082      2905.4821      11847.59       64179.576      87120        
     26700   26700          185.24492      293.59628      8932.5443      2946.6461      11879.19       64135.6        87120        
     26800   26800          185.91948      304.60085      8895.9385      3057.0921      11953.031      64089.451      87120        
     26900   26900          186.59159      298.67298      8910.9697      2997.5978      11908.568      64071.061      87120        
     27000   27000          187.27208      297.45276      8865.7203      2985.3511      11851.071      63866.581      87120        
     27100   27100          187.93464      298.70662      8869.7367      2997.9353      11867.672      63847.061      87120        
     27200   27200          188.61335      309.01173      8872.6767      3101.3615      11974.038      63912.697      87120        
     27300   27300          189.29922      303.29243      8913.4438      3043.9603      11957.404      64142.16       87120        
     27400   27400          189.98078      300.99846      8869.4687      3020.9372      11890.406      64002.716      87120        
     27500   27500          190.66766      301.35417      8855.3816      3024.5072      11879.889      63910.255      87120        
     27600   27600          191.34113      298.92815      8914.1224      3000.1587      11914.281      64052.925      87120        
     27700   27700          192.03777      303.4416       8948.1255      3045.4574      11993.583      64136.411      87120        
     27800   27800          192.73187      305.93212      8978.3315      3070.4533      12048.785      64320.533      87120        
     27900   27900          193.41145      298.36286      8948.6782      2994.4853      11943.164      64282.74       87120        
     28000   28000          194.09511      294.08595      8976.3104      2951.5606      11927.871      64395.764      87120        
     28100   28100          194.77982      302.60711      8975.1791      3037.0822      12012.261      64429.293      87120        
     28200   28200          195.44961      301.19701      8998.1719      3022.9299      12021.102      64419.92       87120        
     28300   28300          196.12697      301.77159      8946.7929      3028.6966      11975.49       64246.44       87120        
     28400   28400          196.80146      290.921        8954.5871      2919.7959      11874.383      64265.741      87120        
     28500   28500          197.47583      297.67197      8916.1918      2987.5512      11903.743      64180.309      87120        
     28600   28600          198.14053      298.11693      8923.7987      2992.017       11915.816      64118.917      87120        
     28700   28700          198.81178      297.59295      8921.991       2986.7582      11908.749      64123.071      87120        
     28800   28800          199.47491      304.87031      8843.6529      3059.7966      11903.45       63849.404      87120        
     28900   28900          200.14875      289.5904       8918.3774      2906.4414      11824.819      64089.291      87120        
     29000   29000          200.82475      293.06195      8870.1433      2941.2833      11811.427      63940.71       87120        
     29100   29100          201.48892      303.8547       8881.1183      3049.6035      11930.722      64029.734      87120        
     29200   29200          202.15306      303.88632      8905.964       3049.9209      11955.885      64078.723      87120        
     29300   29300          202.82216      302.68326      8860.8923      3037.8465      11898.739      63877.179      87120        
     29400   29400          203.483        300.27437      8863.5496      3013.6699      11877.219      63973.142      87120        
     29500   29500          204.1596       300.18024      8911.4247      3012.7252      11924.15       64212.295      87120        
     29600   29600          204.83177      300.72009      8918.3568      3018.1433      11936.5        64110.213      87120        
     29700   29700          205.5061       300.0402       8907.7285      3011.3197      11919.048      63962.92       87120        
     29800   29800          206.18458      296.93462      8922.3917      2980.1509      11902.543      63987.806      87120        
     29900   29900          206.85317      303.03502      8880.6767      3041.3769      11922.054      63911.08       87120        
     30000   30000          207.50294      298.34257      8906.9874      2994.2816      11901.269      64044.041      87120        
     30100   30100          208.15914      296.74929      8877.1535      2978.2909      11855.444      63895.471      87120        
     30200   30200          208.82207      292.20174      8899.9106      2932.6499      11832.561      63884.918      87120        
     30300   30300          209.47275      296.51629      8950.9661      2975.9523      11926.918      64082.042      87120        
     30400   30400          210.13206      305.56095      8919.3373      3066.7281      11986.065      64013.377      87120        
     30500   30500          210.78572      304.39292      8878.7451      3055.0053      11933.75       63955.873      87120        
     30600   30600          211.43984      299.51401      8870.4139      3006.0386      11876.452      63879.435      87120        
     30700   30700          212.0955       296.14102      8904.0063      2972.186       11876.192      63950.804      87120        
     30800   30800          212.74775      304.06081      8869.8803      3051.6721      11921.552      63860.161      87120        
     30900   30900          213.41476      308.17346      8863.2859      3092.9483      11956.234      63815.343      87120        
     31000   31000          214.07016      302.93317      8822.2267      3040.3546      11862.581      63701.62       87120        
     31100   31100          214.72392      292.33824      8873.5045      2934.0198      11807.524      63878.59       87120        
     31200   31200          215.37621      301.2047       8835.1198      3023.0071      11858.127      63702.45       87120        
     31300   31300          216.03851      305.46335      8878.2664      3065.7485      11944.015      63833.85       87120        
     31400   31400          216.69392      302.69169      8888.6839      3037.9311      11926.615      63932.021      87120        
     31500   31500          217.36125      299.69638      8875.3447      3007.869       11883.214      63983.387      87120        
     31600   31600          218.01401      295.5035       8917.2509      2965.7876      11883.039      64064.819      87120        
     31700   31700          218.66817      302.74399      8866.4047      3038.456       11904.861      63866.093      87120        
     31800   31800          219.33547      302.16306      8883.7501      3032.6255      11916.376      63893.104      87120        
     31900   31900          219.98987      296.32259      8914.2275      2974.0084      11888.236      63976.124      87120        
     32000   32000          220.64805      293.00541      8911.5199      2940.7158      11852.236      63998.694      87120        
     32100   32100          221.29137      298.69075      8868.8276      2997.7761      11866.604      63882.116      87120        
     32200   32200          221.94396      305.30421      8867.4788      3064.1513      11931.63       63887.53       87120        
     32300   32300          222.59182      303.0367       8895.6614      3041.3938      11937.055      63997.808      87120        
     32400   32400          223.24044      298.19039      8850.3741      2992.7543      11843.128      63795.14       87120        
     32500   32500          223.89691      299.22987      8821.8276      3003.1869      11825.015      63681.202      87120        
     32600   32600          224.53366      299.3572       8896.629       3004.4648      11901.094      63948.615      87120        
     32700   32700          225.1789       306.98786      8935.7539      3081.0491      12016.803      64069.469      87120        
     32800   32800          225.83318      305.86479      8898.3722      3069.7775      11968.15       64024.877      87120        
     32900   32900          226.49041      301.18332      8899.1627      3022.7925      11921.955      64051.665      87120        
     33000   33000          227.14002      295.53798      8907.8031      2966.1337      11873.937      64053.099      87120        
     33100   33100          227.79144      298.90093      8896.4386      2999.8855      11896.324      63993.331      87120        
     33200   33200          228.43687      306.05946      8892.4169      3071.7313      11964.148      63968.39       87120        
     33300   33300          229.07097      302.52863      8907.786       3036.2945      11944.08       64015.968      87120        
     33400   33400          229.71424      298.09266      8852.9599      2991.7734      11844.733      63822.736      87120        
     33500   33500          230.35598      295.76343      8855.3513      2968.3963      11823.748      63824.926      87120        
     33600   33600          230.98823      302.57209      8817.2336      3036.7307      11853.964      63667.036      87120        
     33700   33700          231.63363      302.78605      8858.9646      3038.8781      11897.843      63769.788      87120        
     33800   33800          232.28525      304.14698      8823.3872      3052.537       11875.924      63672.098      87120        
     33900   33900          232.93654      295.4606       8804.4233      2965.357       11769.78       63565.348      87120        
     34000   34000          233.59754      300.10814      8786.1597      3012.0016      11798.161      63577.278      87120        
     34100   34100          234.24181      304.6734       8803.4132      3057.8203      11861.234      63661.181      87120        
     34200   34200          234.88459      303.03739      8813.701       3041.4006      11855.102      63662.916      87120        
     34300   34300          235.51779      291.48256      8851.7615      2925.4319      11777.193      63701.77       87120        
     34400   34400          236.15403      298.825        8849.4754      2999.1235      11848.599      63763.62       87120        
     34500   34500          236.79638      304.42445      8899.126       3055.3218      11954.448      63976.502      87120        
     34600   34600          237.44569      300.79594      8936.7576      3018.9046      11955.662      64129.186      87120        
     34700   34700          238.10584      296.79394      8916.8524      2978.739       11895.591      64081.9        87120        
     34800   34800          238.77036      296.21025      8912.4204      2972.8808      11885.301      64020.636      87120        
     34900   34900          239.43909      302.77307      8876.5373      3038.7478      11915.285      63833.826      87120        
     35000   35000          240.10884      307.03686      8827.99        3081.5409      11909.531      63577.135      87120        
     35100   35100          240.76445      298.28285      8812.4677      2993.6823      11806.15       63569.673      87120        
     35200   35200          241.41765      294.03273      8810.2026      2951.0264      11761.229      63605.788      87120        
     35300   35300          242.08863      300.28817      8805.8271      3013.8084      11819.636      63643.334      87120        
     35400   35400          242.7705       300.82356      8832.1712      3019.1818      11851.353      63692.147      87120        
     35500   35500          243.44904      300.88468      8783.8509      3019.7953      11803.646      63386.092      87120        
     35600   35600          244.13555      295.82172      8781.4696      2968.9814      11750.451      63321.412      87120        
     35700   35700          244.82268      296.7159       8768.974       2977.9557      11746.93       63309.311      87120        
     35800   35800          245.516        302.78983      8721.5859      3038.9161      11760.502      63226.125      87120        
     35900   35900          246.20987      300.14862      8737.3088      3012.4078      11749.717      63344.043      87120        
     36000   36000          246.89474      294.15637      8771.8847      2952.2673      11724.152      63402.731      87120        
     36100   36100          247.57256      303.91465      8754.8682      3050.2052      11805.073      63353.768      87120        
     36200   36200          248.25824      304.36421      8823.6003      3054.7171      11878.317      63640.111      87120        
     36300   36300          248.94406      299.86845      8828.9465      3009.5959      11838.542      63688.356      87120        
     36400   36400          249.62208      294.66619      8875.4143      2957.384       11832.798      63866.138      87120        
     36500   36500          250.22439      300.14467      8849.0723      3012.3681      11861.44       63763.393      87120        
     36600   36600          250.82135      298.79187      8883.1542      2998.791       11881.945      63926.784      87120        
     36700   36700          251.42219      301.61029      8882.5081      3027.0777      11909.586      64018.345      87120        
     36800   36800          252.01644      307.14655      8827.6985      3082.6418      11910.34       63810.795      87120        
     36900   36900          252.62247      303.48183      8778.5106      3045.8613      11824.372      63574.872      87120        
     37000   37000          253.31395      292.35874      8813.3491      2934.2255      11747.575      63576.122      87120        
     37100   37100          254.06142      298.62368      8798.3424      2997.1029      11795.445      63503.156      87120        
     37200   37200          254.81647      303.46288      8782.456       3045.671       11828.127      63498.402      87120        
     37300   37300          255.55709      299.32158      8773.996       3004.1073      11778.103      63401.588      87120        
     37400   37400          256.30124      297.92024      8745.8464      2990.043       11735.889      63291.915      87120        
     37500   37500          257.0426       292.17988      8736.7692      2932.4305      11669.2        63195.655      87120        
     37600   37600          257.79496      298.19828      8755.6433      2992.8335      11748.477      63256.881      87120        
     37700   37700          258.54714      307.77925      8740.2041      3088.9918      11829.196      63313.051      87120        
     37800   37800          259.30926      300.70223      8771.374       3017.964       11789.338      63454.778      87120        
     37900   37900          260.05503      295.83203      8756.2312      2969.0849      11725.316      63352.062      87120        
     38000   38000          260.80461      296.7449       8771.4117      2978.2468      11749.658      63373.92       87120        
     38100   38100          261.52753      298.24764      8835.5839      2993.3289      11828.913      63595.84       87120        
     38200   38200          262.25725      304.28389      8814.0575      3053.911       11867.969      63590.942      87120        
     38300   38300          262.9987       301.94472      8823.8615      3030.4342      11854.296      63639.716      87120        
     38400   38400          263.7315       301.06191      8839.0667      3021.574       11860.641      63724.672      87120        
     38500   38500          264.40688      299.34709      8851.7058      3004.3634      11856.069      63773.32       87120        
     38600   38600          265.0016       297.23422      8863.5937      2983.1578      11846.752      63769.861      87120        
     38700   38700          265.58588      292.79692      8863.8445      2938.6233      11802.468      63769.771      87120        
     38800   38800          266.17826      297.74047      8805.6447      2988.2387      11793.883      63562.628      87120        
     38900   38900          266.76104      298.38919      8829.6694      2994.7496      11824.419      63679.577      87120        
     39000   39000          267.34788      302.83404      8821.4988      3039.3598      11860.859      63616.86       87120        
     39100   39100          268.04061      304.94008      8804.1987      3060.4968      11864.696      63560.631      87120        
     39200   39200          268.77382      300.66209      8724.6363      3017.5612      11742.198      63283.084      87120        
     39300   39300          269.51158      295.18982      8742.9262      2962.6394      11705.566      63295.481      87120        
     39400   39400          270.23427      301.08648      8719.6613      3021.8206      11741.482      63210.01       87120        
     39500   39500          270.97207      299.4094       8743.3384      3004.9887      11748.327      63240.735      87120        
     39600   39600          271.7147       293.41206      8729.6248      2944.7971      11674.422      63173.221      87120        
     39700   39700          272.44388      289.27738      8769.2032      2903.2999      11672.503      63377.373      87120        
     39800   39800          273.18643      296.21184      8798.8184      2972.8968      11771.715      63446.791      87120        
     39900   39900          273.91924      303.74036      8779.095       3048.4559      11827.551      63347.468      87120        
     40000   40000          274.66597      305.42302      8778.3593      3065.3438      11843.703      63388.734      87120        
     40100   40100          275.39696      301.17794      8783.9092      3022.7385      11806.648      63418.517      87120        
     40200   40200          276.12991      291.93595      8791.8668      2929.9823      11721.849      63454.339      87120        
     40300   40300          276.88046      297.28462      8780.1895      2983.6636      11763.853      63400.705      87120        
     40400   40400          277.60756      303.1213       8748.3408      3042.2428      11790.584      63233.579      87120        
     40500   40500          278.22707      299.49275      8794.0764      3005.8253      11799.902      63434.425      87120        
     40600   40600          278.80859      299.63772      8781.6666      3007.2802      11788.947      63420.876      87120        
     40700   40700          279.38956      295.20257      8768.2737      2962.7674      11731.041      63330.293      87120        
     40800   40800          279.9685       294.26703      8777.5349      2953.3779      11730.913      63353.939      87120        
     40900   40900          280.5554       304.05771      8752.0683      3051.641       11803.709      63208.15       87120        
     41000   41000          281.16358      302.28573      8756.3768      3033.8567      11790.234      63298.555      87120        
     41100   41100          281.88271      296.58617      8762.3388      2976.6537      11738.992      63333.721      87120        
     41200   41200          282.60518      300.13749      8733.2564      3012.2961      11745.553      63193.866      87120        
     41300   41300          283.33572      301.46719      8737.7171      3025.6416      11763.359      63250.066      87120        
     41400   41400          284.06093      296.50755      8792.4796      2975.8647      11768.344      63348.623      87120        
     41500   41500          284.79044      302.62822      8731.2321      3037.2941      11768.526      63179.424      87120        
     41600   41600          285.53638      303.10293      8709.8935      3042.0585      11751.952      63154.524      87120        
     41700   41700          286.27876      296.3963       8753.1702      2974.7481      11727.918      63261.277      87120        
     41800   41800          287.0313       299.72052      8760.4921      3008.1113      11768.603      63235.07       87120        
     41900   41900          287.77025      307.06117      8787.8468      3081.7849      11869.632      63396.548      87120        
     42000   42000          288.49845      308.30365      8726.6029      3094.2549      11820.858      63251.857      87120        
     42100   42100          289.22883      298.01983      8747.8043      2991.0425      11738.847      63278.073      87120        
     42200   42200          289.9493       299.16225      8762.9597      3002.5083      11765.468      63328.576      87120        
     42300   42300          290.68852      303.68125      8786.2885      3047.8626      11834.151      63452.585      87120        
     42400   42400          291.41721      301.22615      8811.7731      3023.2223      11834.995      63457.596      87120        
     42500   42500          291.98273      292.84257      8792.3288      2939.0815      11731.41       63308.82       87120        
     42600   42600          292.55265      294.57057      8798.4742      2956.4243      11754.899      63361.969      87120        
     42700   42700          293.12582      300.60139      8793.3193      3016.952       11810.271      63415.075      87120        
     42800   42800          293.7065       304.19841      8753.6441      3053.0531      11806.697      63379.819      87120        
     42900   42900          294.28153      297.77413      8788.6938      2988.5765      11777.27       63455.838      87120        
     43000   43000          294.86056      301.73243      8747.5989      3028.3036      11775.902      63161.445      87120        
     43100   43100          295.42964      300.09806      8751.099       3011.9004      11762.999      63197.625      87120        
     43200   43200          296.07237      296.51393      8766.8523      2975.9287      11742.781      63286.64       87120        
     43300   43300          296.80398      297.62395      8786.0163      2987.0693      11773.086      63373.228      87120        
     43400   43400          297.52548      303.87584      8768.0496      3049.8157      11817.865      63275.895      87120        
     43500   43500          298.24713      302.20329      8735.7994      3033.0294      11768.829      63130.023      87120        
     43600   43600          298.96561      293.93206      8720.6719      2950.0161      11670.688      63081.604      87120        
     43700   43700          299.68252      297.56838      8717.242       2986.5116      11703.754      63106.645      87120        
     43800   43800          300.3978       305.6729       8685.8767      3067.8516      11753.728      63004.548      87120        
     43900   43900          301.12613      305.86503      8692.0335      3069.7799      11761.813      63046.296      87120        
     44000   44000          301.85402      297.62642      8712.7193      2987.094       11699.813      63035.079      87120        
     44100   44100          302.55682      289.89841      8785.5916      2909.5327      11695.124      63361.857      87120        
     44200   44200          303.26595      303.31003      8718.7756      3044.137       11762.913      63149.893      87120        
     44300   44300          303.99307      302.92493      8727.606       3040.272       11767.878      63126.7        87120        
     44400   44400          304.71438      300.31471      8763.7794      3014.0747      11777.854      63303.576      87120        
     44500   44500          305.43165      296.92218      8801.0782      2980.026       11781.104      63380.162      87120        
     44600   44600          306.13114      297.7941       8792.2662      2988.777       11781.043      63426.054      87120        
     44700   44700          306.70536      305.44427      8769.4454      3065.557       11835.002      63370.615      87120        
     44800   44800          307.29084      302.99893      8807.2894      3041.0147      11848.304      63497.887      87120        
     44900   44900          307.85607      299.71814      8733.5914      3008.0874      11741.679      63204.938      87120        
     45000   45000          308.42333      290.35066      8789.4296      2914.0717      11703.501      63445.091      87120        
     45100   45100          308.98476      299.78561      8772.2535      3008.7645      11781.018      63431.402      87120        
     45200   45200          309.59895      299.2146       8785.2396      3003.0337      11788.273      63420.46       87120        
     45300   45300          310.3213       298.45843      8753.9         2995.4444      11749.344      63224.359      87120        
     45400   45400          311.03771      301.3964       8696.3706      3024.931       11721.302      63020.906      87120        
     45500   45500          311.76136      300.76239      8683.149       3018.5679      11701.717      62946.481      87120        
     45600   45600          312.47583      294.4478       8744.2089      2955.1922      11699.401      63146.438      87120        
     45700   45700          313.19003      306.88038      8675.2505      3079.9704      11755.221      62893.338      87120        
     45800   45800          313.91488      297.18024      8737.9984      2982.6161      11720.614      63057.345      87120        
     45900   45900          314.62926      294.80467      8736.0678      2958.7739      11694.842      63087.989      87120        
     46000   46000          315.34427      302.27393      8750.6802      3033.7383      11784.418      63242.356      87120        
     46100   46100          316.05185      306.84677      8772.0176      3079.6331      11851.651      63344.582      87120        
     46200   46200          316.77751      306.37124      8710.4047      3074.8605      11785.265      63131.939      87120        
     46300   46300          317.49604      297.54801      8775.1157      2986.3071      11761.423      63350.226      87120        
     46400   46400          318.2125       298.51569      8783.1268      2996.0191      11779.146      63319.856      87120        
     46500   46500          318.85528      301.62314      8761.2962      3027.2067      11788.503      63221.758      87120        
     46600   46600          319.41598      296.46177      8774.9115      2975.4052      11750.317      63323.328      87120        
     46700   46700          319.98652      294.17515      8760.1317      2952.4558      11712.587      63284.511      87120        
     46800   46800          320.54609      300.88506      8734.4314      3019.799       11754.23       63182.297      87120        
     46900   46900          321.10883      306.82306      8772.987       3079.3951      11852.382      63332.519      87120        
     47000   47000          321.67713      309.07939      8729.8724      3102.0405      11831.913      63170.546      87120        
     47100   47100          322.31516      300.86106      8711.7819      3019.5582      11731.34       63105.005      87120        
     47200   47200          323.02315      296.66219      8736.8214      2977.4166      11714.238      63178.649      87120        
     47300   47300          323.72527      302.91482      8728.1215      3040.1705      11768.292      63199.625      87120        
     47400   47400          324.42349      304.87919      8741.7332      3059.8856      11801.619      63255.577      87120        
     47500   47500          325.11706      302.55234      8735.0812      3036.5325      11771.614      63161.938      87120        
     47600   47600          325.8189       297.42593      8717.8477      2985.0819      11702.93       63038.765      87120        
     47700   47700          326.53995      294.11823      8775.6808      2951.8845      11727.565      63332.948      87120        
     47800   47800          327.25019      305.16087      8781.4879      3062.7127      11844.201      63463.705      87120        
     47900   47900          327.96171      306.13811      8756.9316      3072.5207      11829.452      63323.317      87120        
     48000   48000          328.65767      300.03087      8738.0874      3011.226       11749.313      63180.44       87120        
     48100   48100          329.34576      296.43348      8727.071       2975.1213      11702.192      63161.824      87120        
     48200   48200          330.02674      296.40275      8738.8357      2974.8129      11713.649      63233.469      87120        
     48300   48300          330.72039      309.44085      8682.4612      3105.6682      11788.129      63100.283      87120        
     48400   48400          331.35809      305.5825       8706.1626      3066.9443      11773.107      63055.097      87120        
     48500   48500          331.9028       296.19168      8691.8056      2972.6945      11664.5        62945.36       87120        
     48600   48600          332.4386       296.11745      8688.7315      2971.9494      11660.681      62879.558      87120        
     48700   48700          332.98853      302.31636      8693.8764      3034.1641      11728.041      62938.304      87120        
     48800   48800          333.53331      304.94765      8749.4216      3060.5728      11809.994      63215.681      87120        
     48900   48900          334.08589      308.62629      8737.2954      3097.4931      11834.788      63198.083      87120        
     49000   49000          334.62939      296.0346       8750.1251      2971.1179      11721.243      63233.298      87120        
     49100   49100          335.17541      294.93012      8741.2171      2960.033       11701.25       63178.8        87120        
     49200   49200          335.75403      301.51684      8750.8348      3026.1398      11776.975      63259.378      87120        
     49300   49300          336.44478      303.58532      8781.5394      3046.8999      11828.439      63343.665      87120        
     49400   49400          337.13312      299.07471      8736.0086      3001.6297      11737.638      63139.157      87120        
     49500   49500          337.81793      296.56955      8723.2018      2976.4869      11699.689      63040.668      87120        
     49600   49600          338.52079      297.68376      8767.3465      2987.6696      11755.016      63205.327      87120        
     49700   49700          339.22272      300.83837      8779.1568      3019.3304      11798.487      63281.44       87120        
     49800   49800          339.91998      303.92557      8729.5612      3050.3148      11779.876      63146.553      87120        
     49900   49900          340.62175      296.15765      8686.1211      2972.3529      11658.474      62981.002      87120        
     50000   50000          341.31368      293.1531       8696.9959      2942.1981      11639.194      62986.033      87120        
     50100   50100          341.99306      301.31766      8656.5157      3024.1408      11680.656      62858.006      87120        
     50200   50200          342.67226      301.08137      8693.9146      3021.7693      11715.684      63032.681      87120        
     50300   50300          343.35101      299.57136      8725.2527      3006.6142      11731.867      63156.893      87120        
     50400   50400          344.0267       299.42062      8728.6271      3005.1014      11733.729      63153.267      87120        
     50500   50500          344.70552      299.70635      8725.6521      3007.9691      11733.621      63135.436      87120        
     50600   50600          345.39075      297.62253      8743.2311      2987.055       11730.286      63222.924      87120        
     50700   50700          346.02929      293.74726      8791.3106      2948.1613      11739.472      63439.113      87120        
     50800   50800          346.57462      298.83618      8833.7587      2999.2357      11832.994      63635.19       87120        
     50900   50900          347.12725      308.33297      8794.9399      3094.5492      11889.489      63508.665      87120        
     51000   51000          347.68454      303.29947      8772.5947      3044.031       11816.626      63357.074      87120        
     51100   51100          348.22294      298.0916       8763.6937      2991.7628      11755.456      63287.634      87120        
     51200   51200          348.77648      301.34501      8717.3672      3024.4153      11741.782      63105.53       87120        
     51300   51300          349.31842      301.96981      8693.0379      3030.686       11723.724      63019.196      87120        
     51400   51400          349.86582      297.94755      8715.6812      2990.317       11705.998      63099.96       87120        
     51500   51500          350.46538      303.00902      8699.7288      3041.1159      11740.845      62948.186      87120        
     51600   51600          351.15621      301.64486      8692.6416      3027.4247      11720.066      62957.355      87120        
     51700   51700          351.84687      298.66932      8642.464       2997.5611      11640.025      62823.194      87120        
     51800   51800          352.53372      294.59825      8678.2152      2956.7022      11634.917      62938.865      87120        
     51900   51900          353.21872      301.50781      8684.7106      3026.0492      11710.76       62921.857      87120        
     52000   52000          353.90681      298.02381      8755.6525      2991.0825      11746.735      63172.965      87120        
     52100   52100          354.5882       297.97333      8800.9865      2990.5758      11791.562      63369.42       87120        
     52200   52200          355.28078      299.27758      8765.6684      3003.6657      11769.334      63239.13       87120        
     52300   52300          355.97419      295.99066      8695.1411      2970.677       11665.818      62992.144      87120        
     52400   52400          356.65949      296.85506      8712.634       2979.3524      11691.986      63101.012      87120        
     52500   52500          357.34521      298.91105      8758.7841      2999.9871      11758.771      63248.784      87120        
     52600   52600          358.03036      302.56808      8774.4681      3036.6905      11811.159      63262.452      87120        
     52700   52700          358.70821      301.28587      8734.7109      3023.8217      11758.533      63140.937      87120        
     52800   52800          359.3924       296.20886      8722.219       2972.8668      11695.086      63107.469      87120        
     52900   52900          359.94683      293.75816      8749.0215      2948.2707      11697.292      63094.946      87120        
     53000   53000          360.50305      303.91591      8700.9074      3050.2179      11751.125      62866.845      87120        
     53100   53100          361.04115      300.92244      8720.5134      3020.1742      11740.688      62931.713      87120        
     53200   53200          361.5704       304.1031       8678.7701      3052.0966      11730.867      62870.708      87120        
     53300   53300          362.08768      295.67923      8743.6148      2967.5513      11711.166      63161.257      87120        
     53400   53400          362.61147      296.06494      8698.2059      2971.4225      11669.628      63060.078      87120        
     53500   53500          363.21529      301.53043      8695.1139      3026.2762      11721.39       63024.678      87120        
     53600   53600          363.86703      301.23756      8742.4842      3023.3368      11765.821      63069.199      87120        
     53700   53700          364.51947      304.93353      8717.2654      3060.431       11777.696      62975.091      87120        
     53800   53800          365.17721      296.93557      8722.9065      2980.1604      11703.067      63047.172      87120        
     53900   53900          365.82358      297.87173      8704.4679      2989.5561      11694.024      63006.872      87120        
     54000   54000          366.48072      298.70692      8736.0956      2997.9384      11734.034      63115.385      87120        
     54100   54100          367.12443      305.65685      8743.5026      3067.6906      11811.193      63134.987      87120        
     54200   54200          367.76746      311.38447      8720.9979      3125.1751      11846.173      63043.227      87120        
     54300   54300          368.40163      306.16966      8666.7803      3072.8373      11739.618      62921.425      87120        
     54400   54400          369.05384      292.73231      8764.9467      2937.9749      11702.922      63246.008      87120        
     54500   54500          369.70634      303.93719      8715.4116      3050.4314      11765.843      63107.001      87120        
     54600   54600          370.35059      305.70835      8717.3968      3068.2075      11785.604      63075.234      87120        
     54700   54700          370.98875      294.05736      8757.5056      2951.2736      11708.779      63150.009      87120        
     54800   54800          371.63282      295.59821      8717.6161      2966.7382      11684.354      62964.118      87120        
     54900   54900          372.27401      298.89538      8743.6314      2999.8299      11743.461      63095.912      87120        
     55000   55000          372.9222       295.46782      8818.3219      2965.4295      11783.751      63415.875      87120        
     55100   55100          373.45454      301.53458      8763.625       3026.3179      11789.943      63268.439      87120        
     55200   55200          373.97237      301.21498      8752.3164      3023.1102      11775.427      63248.702      87120        
     55300   55300          374.48811      296.70526      8707.2989      2977.849       11685.148      63019.396      87120        
     55400   55400          375.00322      293.42341      8723.7607      2944.911       11668.672      63042.308      87120        
     55500   55500          375.51963      303.42573      8725.5584      3045.2982      11770.857      63089.94       87120        
     55600   55600          376.03657      301.3174       8748.9385      3024.1382      11773.077      63177.929      87120        
     55700   55700          376.56301      298.74208      8753.293       2998.2913      11751.584      63178.788      87120        
     55800   55800          377.08087      301.2126       8691.4399      3023.0863      11714.526      62945.195      87120        
     55900   55900          377.63499      291.30147      8669.0362      2923.6144      11592.651      62821.163      87120        
     56000   56000          378.28128      294.46148      8694.5383      2955.3295      11649.868      62961.735      87120        
     56100   56100          378.9091       299.85117      8700.3284      3009.4225      11709.751      62969.522      87120        
     56200   56200          379.54183      301.14988      8670.5036      3022.4569      11692.96       62783.361      87120        
     56300   56300          380.18012      302.22369      8625.6103      3033.234       11658.844      62587.934      87120        
     56400   56400          380.81176      291.87055      8668.3663      2929.3259      11597.692      62724.765      87120        
     56500   56500          381.44267      301.59856      8607.6792      3026.96        11634.639      62552.603      87120        
     56600   56600          382.082        305.52079      8704.3468      3066.3251      11770.672      62973.138      87120        
     56700   56700          382.71257      310.18204      8720.0363      3113.1071      11833.143      63064.533      87120        
     56800   56800          383.3509       298.86291      8703.4871      2999.504       11702.991      62937.71       87120        
     56900   56900          383.98286      300.53554      8685.254       3016.2911      11701.545      62903.575      87120        
     57000   57000          384.62862      303.01364      8670.6316      3041.1622      11711.794      62939.034      87120        
[...]
    986200   986200         5430.0421      294.72256      8256.3103      2957.9498      11214.26       61497.903      87120        
    986300   986300         5430.6638      291.68343      8223.5618      2927.4479      11151.01       61518.784      87120        
    986400   986400         5431.2039      299.1078       8236.7378      3001.9618      11238.7        61653.652      87120        
    986500   986500         5431.7133      309.83236      8207.7782      3109.5977      11317.376      61444.963      87120        
    986600   986600         5432.2177      301.88499      8264.5139      3029.8347      11294.349      61628.574      87120        
    986700   986700         5432.7123      299.15025      8263.4783      3002.3878      11265.866      61639.283      87120        
    986800   986800         5433.2161      291.88724      8260.9795      2929.4934      11190.473      61553.191      87120        
    986900   986900         5433.7146      291.66434      8259.6929      2927.2563      11186.949      61633.845      87120        
    987000   987000         5434.2074      300.95443      8290.5275      3020.4953      11311.023      61752.586      87120        
    987100   987100         5434.691       303.9059       8281.3006      3050.1173      11331.418      61699.872      87120        
    987200   987200         5435.168       295.42139      8315.5096      2964.9636      11280.473      61728.281      87120        
    987300   987300         5435.6554      302.16558      8235.5221      3032.6508      11268.173      61651.463      87120        
    987400   987400         5436.1579      299.93255      8295.0133      3010.2393      11305.253      61915.417      87120        
    987500   987500         5436.7486      303.30329      8334.0545      3044.0693      11378.124      61884.53       87120        
    987600   987600         5437.3723      304.05957      8279.3295      3051.6597      11330.989      61630.76       87120        
    987700   987700         5437.9963      297.73445      8285.6334      2988.1783      11273.812      61640.674      87120        
    987800   987800         5438.6073      296.80471      8299.0602      2978.847       11277.907      61863.905      87120        
    987900   987900         5439.2289      302.38302      8274.2867      3034.8331      11309.12       61841.92       87120        
    988000   988000         5439.8484      298.97624      8310.3811      3000.6414      11311.023      61707.796      87120        
    988100   988100         5440.4444      301.641        8269.8669      3027.386       11297.253      61467.181      87120        
    988200   988200         5441.053       298.28747      8293.1854      2993.7286      11286.914      61627.114      87120        
    988300   988300         5441.653       295.3029       8318.4568      2963.7743      11282.231      61926.81       87120        
    988400   988400         5442.2635      300.18306      8321.7389      3012.7535      11334.492      61969.653      87120        
    988500   988500         5442.8835      310.19344      8278.2935      3113.2216      11391.515      61707.673      87120        
    988600   988600         5443.5071      294.20297      8342.1153      2952.7349      11294.85       61923.702      87120        
    988700   988700         5444.1332      295.27959      8270.9119      2963.5404      11234.452      61592.62       87120        
    988800   988800         5444.7581      298.87093      8266.3405      2999.5845      11265.925      61634.272      87120        
    988900   988900         5445.3649      300.65278      8287.8524      3017.4678      11305.32       61766.413      87120        
    989000   989000         5445.8799      304.31658      8278.8206      3054.2391      11333.06       61715.64       87120        
    989100   989100         5446.3724      296.91486      8288.695       2979.9526      11268.648      61685.876      87120        
    989200   989200         5446.8595      292.191        8221.9581      2932.5421      11154.5        61535.007      87120        
    989300   989300         5447.3508      295.92678      8226.4242      2970.0358      11196.46       61517.724      87120        
    989400   989400         5447.8454      302.34325      8234.6616      3034.434       11269.096      61508.888      87120        
    989500   989500         5448.3337      300.8712       8280.3661      3019.6599      11300.026      61677.149      87120        
    989600   989600         5448.8322      300.60908      8266.5267      3017.0292      11283.556      61530.645      87120        
    989700   989700         5449.3333      293.32107      8249.9109      2943.8839      11193.795      61508.039      87120        
    989800   989800         5449.8383      294.71601      8209.389       2957.8841      11167.273      61379.593      87120        
    989900   989900         5450.3433      303.06482      8244.4465      3041.676       11286.122      61622.691      87120        
    990000   990000         5450.867       299.59358      8305.0052      3006.8372      11311.842      61858.547      87120        
    990100   990100         5451.4735      298.76163      8316.7038      2998.4875      11315.191      61737.028      87120        
    990200   990200         5452.0986      297.75579      8246.968       2988.3925      11235.36       61479.872      87120        
    990300   990300         5452.7055      294.22758      8200.1689      2952.982       11153.151      61367.189      87120        
    990400   990400         5453.3222      297.78085      8225.5087      2988.644       11214.153      61482.093      87120        
    990500   990500         5453.9371      299.18355      8255.9588      3002.7221      11258.681      61563.904      87120        
    990600   990600         5454.5665      302.57079      8236.2998      3036.7177      11273.017      61390.042      87120        
    990700   990700         5455.1704      300.06099      8247.8473      3011.5283      11259.376      61541.788      87120        
    990800   990800         5455.7789      298.26186      8207.9841      2993.4715      11201.456      61569.717      87120        
    990900   990900         5456.3769      290.05509      8276.3407      2911.1053      11187.446      61728.635      87120        
    991000   991000         5456.9876      300.99567      8274.5949      3020.9092      11295.504      61620.196      87120        
    991100   991100         5457.5986      301.80638      8275.011       3029.0457      11304.057      61464.033      87120        
    991200   991200         5458.1985      297.41905      8273.6146      2985.0128      11258.627      61533.242      87120        
    991300   991300         5458.8138      298.95983      8224.4115      3000.4767      11224.888      61493.652      87120        
    991400   991400         5459.4252      296.62022      8216.281       2976.9955      11193.276      61538.859      87120        
    991500   991500         5460.0426      295.72629      8271.3362      2968.0237      11239.36       61730.881      87120        
    991600   991600         5460.5634      304.37324      8271.2195      3054.8078      11326.027      61623.461      87120        
    991700   991700         5461.0716      302.38388      8249.7237      3034.8418      11284.565      61503.64       87120        
    991800   991800         5461.5678      297.48315      8235.7128      2985.6562      11221.369      61412.872      87120        
    991900   991900         5462.0716      300.7849       8209.69        3018.7938      11228.484      61340.939      87120        
    992000   992000         5462.5702      307.19529      8254.3328      3083.131       11337.464      61534.157      87120        
    992100   992100         5463.062       307.75735      8317.4752      3088.772       11406.247      61724.382      87120        
    992200   992200         5463.5527      300.11815      8291.0113      3012.102       11303.113      61649.83       87120        
    992300   992300         5464.0442      298.66053      8243.0731      2997.4728      11240.546      61592.817      87120        
    992400   992400         5464.5428      293.50446      8276.7209      2945.7245      11222.445      61706.82       87120        
    992500   992500         5465.0441      297.85178      8319.1039      2989.3559      11308.46       61739.568      87120        
    992600   992600         5465.5635      306.08945      8277.0615      3072.0323      11349.094      61589.967      87120        
    992700   992700         5466.1731      301.30946      8269.2468      3024.0585      11293.305      61687.145      87120        
    992800   992800         5466.7842      297.20316      8270.9004      2982.846       11253.746      61728.622      87120        
    992900   992900         5467.406       299.72191      8226.1068      3008.1253      11234.232      61575.808      87120        
    993000   993000         5468.0199      296.95521      8268.1916      2980.3575      11248.549      61633.47       87120        
    993100   993100         5468.628       309.69013      8239.114       3108.1702      11347.284      61468.737      87120        
    993200   993200         5469.2436      312.51871      8208.9905      3136.5589      11345.549      61404.563      87120        
    993300   993300         5469.8542      301.54724      8213.9624      3026.4449      11240.407      61458.208      87120        
    993400   993400         5470.4672      294.41317      8275.0936      2954.8447      11229.938      61698.828      87120        
    993500   993500         5471.0823      301.77645      8223.8154      3028.7454      11252.561      61569.622      87120        
    993600   993600         5471.6801      299.84003      8230.1795      3009.3107      11239.49       61429.499      87120        
    993700   993700         5472.2893      300.14653      8218.9454      3012.3868      11231.332      61331.199      87120        
    993800   993800         5472.8988      295.9954       8255.7503      2970.7245      11226.475      61532.925      87120        
    993900   993900         5473.496       301.43305      8233.1695      3025.2989      11258.468      61549.56       87120        
    994000   994000         5474.1239      300.79488      8259.7509      3018.894       11278.645      61598.175      87120        
    994100   994100         5474.7305      299.60704      8224.5256      3006.9723      11231.498      61452.497      87120        
    994200   994200         5475.228       291.68542      8247.6182      2927.4679      11175.086      61412.484      87120        
    994300   994300         5475.7199      298.15617      8253.69        2992.4108      11246.101      61491.429      87120        
    994400   994400         5476.2183      305.67788      8267.2832      3067.9016      11335.185      61620.251      87120        
    994500   994500         5476.7235      300.25008      8273.1264      3013.4261      11286.553      61663.344      87120        
    994600   994600         5477.2275      294.41645      8277.4938      2954.8776      11232.371      61820.843      87120        
    994700   994700         5477.7361      299.37761      8237.1488      3004.6697      11241.818      61528.076      87120        
    994800   994800         5478.2525      302.49133      8240.7418      3035.9202      11276.662      61446.007      87120        
    994900   994900         5478.7811      295.10409      8266.8993      2961.779       11228.678      61618.046      87120        
    995000   995000         5479.333       290.03073      8269.1145      2910.8608      11179.975      61817.007      87120        
    995100   995100         5479.9539      300.94776      8237.2012      3020.4283      11257.629      61565.861      87120        
    995200   995200         5480.5797      299.42667      8261.0145      3005.1621      11266.177      61535.805      87120        
    995300   995300         5481.2033      299.12108      8245.9997      3002.095       11248.095      61486.613      87120        
    995400   995400         5481.8334      295.74025      8232.2518      2968.1638      11200.416      61538.491      87120        
    995500   995500         5482.4664      292.14585      8244.9303      2932.089       11177.019      61653.741      87120        
    995600   995600         5483.0994      302.78608      8223.2205      3038.8784      11262.099      61573.889      87120        
    995700   995700         5483.7326      302.57752      8248.9508      3036.7852      11285.736      61570.368      87120        
    995800   995800         5484.3671      297.84841      8287.9965      2989.322       11277.319      61591.782      87120        
    995900   995900         5484.9881      297.64169      8293.7243      2987.2473      11280.972      61676.949      87120        
    996000   996000         5485.6069      299.88011      8224.3327      3009.713       11234.046      61565.874      87120        
    996100   996100         5486.2164      293.43391      8233.7399      2945.0164      11178.756      61528.652      87120        
    996200   996200         5486.8326      300.78414      8208.825       3018.7862      11227.611      61440.653      87120        
    996300   996300         5487.449       303.64568      8219.6447      3047.5057      11267.15       61430.229      87120        
    996400   996400         5488.0603      296.50641      8281.3049      2975.8532      11257.158      61613.299      87120        
    996500   996500         5488.6244      305.21807      8243.7419      3063.2868      11307.029      61673.818      87120        
    996600   996600         5489.132       301.29128      8277.1439      3023.8761      11301.02       61658.165      87120        
    996700   996700         5489.6361      290.5441       8236.7784      2916.0131      11152.791      61542.622      87120        
    996800   996800         5490.1429      295.39092      8244.2341      2964.6577      11208.892      61501.188      87120        
    996900   996900         5490.652       304.40008      8235.6414      3055.0772      11290.719      61463.931      87120        
    997000   997000         5491.1611      300.96113      8258.2692      3020.5625      11278.832      61667.048      87120        
    997100   997100         5491.6678      298.17283      8232.091       2992.5781      11224.669      61605.986      87120        
    997200   997200         5492.1764      295.84223      8241.6214      2969.1873      11210.809      61581.755      87120        
    997300   997300         5492.6835      305.84484      8241.8723      3069.5773      11311.45       61507.731      87120        
    997400   997400         5493.1927      301.31533      8265.4528      3024.1174      11289.57       61612.254      87120        
    997500   997500         5493.7         302.06738      8231.2909      3031.6652      11262.956      61507.322      87120        
    997600   997600         5494.2048      294.06548      8279.4827      2951.355       11230.838      61659.215      87120        
    997700   997700         5494.7139      296.53484      8264.1008      2976.1385      11240.239      61496.498      87120        
    997800   997800         5495.2822      304.56073      8273.8054      3056.6895      11330.495      61618.374      87120        
    997900   997900         5495.905       308.83004      8243.7959      3099.5379      11343.334      61610.068      87120        
    998000   998000         5496.5325      301.9821       8219.7315      3030.8093      11250.541      61485.071      87120        
    998100   998100         5497.1381      296.29994      8243.7594      2973.781       11217.54       61519.707      87120        
    998200   998200         5497.7575      300.51777      8226.129       3016.1128      11242.242      61549.921      87120        
    998300   998300         5498.3571      300.4611       8273.7676      3015.544       11289.312      61748.325      87120        
    998400   998400         5498.9663      308.49855      8227.3999      3096.211       11323.611      61536.554      87120        
    998500   998500         5499.5787      298.44722      8249.3336      2995.3319      11244.666      61457.074      87120        
    998600   998600         5500.1952      294.76143      8214.4668      2958.3399      11172.807      61340.237      87120        
    998700   998700         5500.8246      296.40929      8261.8644      2974.8785      11236.743      61660.118      87120        
    998800   998800         5501.4419      303.08845      8272.6764      3041.9131      11314.59       61786.333      87120        
    998900   998900         5502.0652      298.29483      8287.926       2993.8024      11281.728      61787.954      87120        
    999000   999000         5502.6935      302.05659      8211.9674      3031.557       11243.524      61396.698      87120        
    999100   999100         5503.3004      297.61518      8228.7243      2986.9812      11215.706      61386.129      87120        
    999200   999200         5503.9059      291.72026      8227.6658      2927.8175      11155.483      61430.18       87120        
    999300   999300         5504.4271      294.7974       8233.8015      2958.7009      11192.502      61545.824      87120        
    999400   999400         5504.9125      302.54839      8254.9798      3036.4929      11291.473      61613.649      87120        
    999500   999500         5505.4077      299.23053      8292.566       3003.1935      11295.76       61803.858      87120        
    999600   999600         5505.9116      300.81266      8251.363       3019.0724      11270.435      61666.86       87120        
    999700   999700         5506.4115      293.43421      8248.888       2945.0195      11193.907      61553.59       87120        
    999800   999800         5506.9171      292.48533      8249.9065      2935.4961      11185.403      61516.515      87120        
    999900   999900         5507.4146      305.37633      8252.1339      3064.8751      11317.009      61626.43       87120        
   1000000   1000000        5507.9225      304.92903      8270.0597      3060.3859      11330.446      61662.411      87120        
Loop time of 5507.92 on 8 procs for 1000000 steps with 4363 atoms

Performance: 15.686 ns/day, 1.530 hours/ns, 181.557 timesteps/s, 792.132 katom-step/s
98.6% CPU use with 8 MPI tasks x no OpenMP threads

MPI task timing breakdown:
Section |  min time  |  avg time  |  max time  |%varavg| %total
---------------------------------------------------------------
Pair    | 5.0682     | 1987.8     | 4109.6     |3465.3 | 36.09
Bond    | 1.9431     | 29.09      | 40.246     | 291.2 |  0.53
Neigh   | 608.98     | 613.23     | 620.14     |  16.9 | 11.13
Comm    | 521.88     | 2623.4     | 4620       |2978.5 | 47.63
Output  | 1.2945     | 1.4112     | 1.6126     |   7.7 |  0.03
Modify  | 190.64     | 222.12     | 343.51     | 319.8 |  4.03
Other   |            | 30.86      |            |       |  0.56

Nlocal:        545.375 ave        1148 max           0 min
Histogram: 2 0 2 0 0 0 2 0 0 2
Nghost:        4647.12 ave        8141 max        1324 min
Histogram: 2 0 0 2 0 2 0 0 0 2
Neighs:         177323 ave      407878 max           0 min
Histogram: 3 1 0 0 0 0 2 0 0 2

Total # of neighbors = 1418582
Ave neighs/atom = 325.13912
Ave special neighs/atom = 6.3176713
Neighbor list builds = 69578
Dangerous builds = 0
unfix                  mynvt


write_data             nvt_3ns.data
System init for write_data ...
Generated 21 of 21 mixed pair_coeff terms from arithmetic mixing rule
WARNING: Dihedrals are defined but no dihedral style is set (../force.cpp:207)
WARNING: Likewise 1-4 special neighbor interactions != 1.0 (../force.cpp:209)
WARNING: Impropers are defined but no improper style is set (../force.cpp:212)
Total wall time: 1:31:48
