LAMMPS (29 Aug 2024)
units                  real
atom_style	       full
bond_style	       harmonic
angle_style	       harmonic
boundary	       p p p

neighbor 2.0 bin
neigh_modify every 1 delay 0 check yes

# ============= read data and parameters files

read_data             memb_3.lammps
Reading data file ...
  orthogonal box = (-0.1495 -0.193001 -38.75) to (32.8505 32.806999 41.25)
  1 by 1 by 1 MPI processor grid
  reading atoms ...
  4363 atoms
  scanning bonds ...
  4 = max bonds/atom
  scanning angles ...
  6 = max angles/atom
  scanning dihedrals ...
  8 = max dihedrals/atom
  scanning impropers ...
  2 = max impropers/atom
  orthogonal box = (-0.1495 -0.193001 -38.75) to (32.8505 32.806999 41.25)
  1 by 1 by 1 MPI processor grid
  reading bonds ...
  3927 bonds
  reading angles ...
  4665 angles
  reading dihedrals ...
  6903 dihedrals
  reading impropers ...
  1144 impropers
Finding 1-2 1-3 1-4 neighbors ...
  special bond factors lj:    0        0        0       
  special bond factors coul:  0        0        0       
     4 = max # of 1-2 neighbors
     6 = max # of 1-3 neighbors
    18 = max # of 1-4 neighbors
    18 = max # of special neighbors
  special bonds CPU = 0.003 seconds
  read_data CPU = 0.080 seconds

pair_style            lj/cut 10.0
pair_modify           shift yes mix arithmetic


pair_coeff  1  1      0.0859  3.3997
pair_coeff  2  2      0.0659  3.5000
pair_coeff  3  3      0.0859  3.3997
pair_coeff  4  4      0.0859  3.3997
pair_coeff  5  5      0.0299  2.5000
pair_coeff  6  6      0.0000  1.0000
pair_coeff  7  7      0.1521  3.1507

bond_coeff     1      938.0    1.42
bond_coeff     2      661.2    1.10
bond_coeff     3      938.0    1.42
bond_coeff     4      938.0    1.42
bond_coeff     5      450.0    0.9572

angle_coeff    1      126      120.0
angle_coeff    2      126      120.0
angle_coeff    3      126      120.0
angle_coeff    4      78.8     109.5
angle_coeff    5      55.0     104.52


group  water     type 6  7
2985 atoms in group water
group  memb      type 1
432 atoms in group memb
group  CG1       type 3
448 atoms in group CG1
group  CG2       type 4
448 atoms in group CG2
group  CG3       type 3 4
896 atoms in group CG3


compute 9 all pe/atom

dump dump_1 all custom 500 dump.lammpstrj id type x y z

timestep 1.0
thermo_style custom step time cpu temp pe ke etotal press vol
thermo 100

fix                    myshk1  water shake 1.0e-5 200 0 b 5 a 5
Finding SHAKE clusters ...
       0 = # of size 2 clusters
       0 = # of size 3 clusters
       0 = # of size 4 clusters
     995 = # of frozen angles
  find clusters CPU = 0.001 seconds

minimize               1.0e-4 1.0e-6 100 1000

CITE-CITE-CITE-CITE-CITE-CITE-CITE-CITE-CITE-CITE-CITE-CITE-CITE

Your simulation uses code contributions which should be cited:

- Type Label Framework: https://doi.org/10.1021/acs.jpcb.3c08419

@Article{Gissinger24,
 author = {Jacob R. Gissinger, Ilia Nikiforov, Yaser Afshar, Brendon Waters, Moon-ki Choi, Daniel S. Karls, Alexander Stukowski, Wonpil Im, Hendrik Heinz, Axel Kohlmeyer, and Ellad B. Tadmor},
 title = {Type Label Framework for Bonded Force Fields in LAMMPS},
 journal = {J. Phys. Chem. B},
 year =    2024,
 volume =  128,
 number =  13,
 pages =   {3282–-3297}
}

CITE-CITE-CITE-CITE-CITE-CITE-CITE-CITE-CITE-CITE-CITE-CITE-CITE

Generated 21 of 21 mixed pair_coeff terms from arithmetic mixing rule
WARNING: Dihedrals are defined but no dihedral style is set (../force.cpp:207)
WARNING: Likewise 1-4 special neighbor interactions != 1.0 (../force.cpp:209)
WARNING: Impropers are defined but no improper style is set (../force.cpp:212)
WARNING: Using fix shake with minimization.
  Substituting constraints with harmonic restraint forces using kbond=1987 (../fix_shake.cpp:386)
Neighbor list info ...
  update: every = 1 steps, delay = 0 steps, check = yes
  max neighbors/atom: 2000, page size: 100000
  master list distance cutoff = 12
  ghost atom cutoff = 12
  binsize = 6, bins = 6 6 14
  1 neighbor lists, perpetual/occasional/extra = 1 0 0
  (1) pair lj/cut, perpetual
      attributes: half, newton on
      pair build: half/bin/newton
      stencil: half/bin/3d
      bin: standard
Per MPI rank memory allocation (min/avg/max) = 20.14 | 20.14 | 20.14 Mbytes
   Step          Time           CPU            Temp          PotEng         KinEng         TotEng         Press          Volume    
         0   0              0              0              8.5066053e+12  0              8.5066053e+12  2.678075e+13   87120        
       100   100            3.0871228      0              8793.3747      0              8793.3747      61981.92       87120        
Loop time of 3.08715 on 1 procs for 100 steps with 4363 atoms

99.9% CPU use with 1 MPI tasks x no OpenMP threads

Minimization stats:
  Stopping criterion = max iterations
  Energy initial, next-to-last, final = 
      8506605303052.05   8852.12043485774    8793.3746846886
  Force two-norm initial, final = 4.1278633e+14 753.32094
  Force max component initial, final = 2.633483e+14 212.91267
  Final line search alpha, max atom move = 0.00047173203 0.10043773
  Iterations, force evaluations = 100 130

MPI task timing breakdown:
Section |  min time  |  avg time  |  max time  |%varavg| %total
---------------------------------------------------------------
Pair    | 2.7723     | 2.7723     | 2.7723     |   0.0 | 89.80
Bond    | 0.040698   | 0.040698   | 0.040698   |   0.0 |  1.32
Neigh   | 0.23089    | 0.23089    | 0.23089    |   0.0 |  7.48
Comm    | 0.013321   | 0.013321   | 0.013321   |   0.0 |  0.43
Output  | 4.854e-05  | 4.854e-05  | 4.854e-05  |   0.0 |  0.00
Modify  | 0.01389    | 0.01389    | 0.01389    |   0.0 |  0.45
Other   |            | 0.01601    |            |       |  0.52

Nlocal:           4363 ave        4363 max        4363 min
Histogram: 1 0 0 0 0 0 0 0 0 0
Nghost:          11830 ave       11830 max       11830 min
Histogram: 1 0 0 0 0 0 0 0 0 0
Neighs:    1.21556e+06 ave 1.21556e+06 max 1.21556e+06 min
Histogram: 1 0 0 0 0 0 0 0 0 0

Total # of neighbors = 1215562
Ave neighs/atom = 278.60692
Ave special neighs/atom = 6.3176713
Neighbor list builds = 6
Dangerous builds = 0

fix                    freeze memb setforce 0.0 0.0 0.0

#fix                   pistonkeep CG3  setforce  0.0 0.0 NULL
#fix                   myforce1   CG1  aveforce NULL NULL  -0.03180     #P=50 bars
#fix                   myforce2   CG2  aveforce NULL NULL  NULL
fix                    freeze1    CG3  setforce 0.0 0.0 0.0

fix                    mynvt  all nvt temp 300 300 100.0
run                    100000
Generated 21 of 21 mixed pair_coeff terms from arithmetic mixing rule
WARNING: Dihedrals are defined but no dihedral style is set (../force.cpp:207)
WARNING: Likewise 1-4 special neighbor interactions != 1.0 (../force.cpp:209)
WARNING: Impropers are defined but no improper style is set (../force.cpp:212)
Per MPI rank memory allocation (min/avg/max) = 20.43 | 20.43 | 20.43 Mbytes
   Step          Time           CPU            Temp          PotEng         KinEng         TotEng         Press          Volume    
       100   0              0              0              8771.5795      0              8771.5795      61898.345      87120        
       200   100            1.573629       89.964612      7983.0834      902.91971      8886.0031      59195.663      87120        
       300   200            3.256025       125.79105      7941.8132      1262.4877      9204.301       58904.497      87120        
       400   300            5.0627394      166.63005      7969.1439      1672.3637      9641.5077      59049.248      87120        
       500   400            6.8917132      202.961        8131.2072      2036.9953      10168.203      59713.094      87120        
       600   500            8.7188513      247.43136      8260.253       2483.317       10743.57       60317.501      87120        
       700   600            10.574414      291.3765       8374.4797      2924.3675      11298.847      60866.976      87120        
       800   700            12.479454      319.71259      8476.4528      3208.7595      11685.212      61342.169      87120        
       900   800            14.383238      322.35081      8453.5717      3235.2376      11688.809      61260.991      87120        
      1000   900            16.281252      296.66158      8407.1789      2977.4106      11384.59       60978.878      87120        
      1100   1000           18.123242      288.27881      8314.6755      2893.2778      11207.953      60625.266      87120        
      1200   1100           20.04423       290.87673      8340.5514      2919.3516      11259.903      60723.293      87120        
      1300   1200           21.964564      298.45208      8435.0695      2995.3807      11430.45       60996.62       87120        
      1400   1300           23.973817      313.39898      8369.8524      3145.3936      11515.246      60785.888      87120        
      1500   1400           25.964205      298.10863      8369.2514      2991.9337      11361.185      60710.132      87120        
      1600   1500           28.036992      294.54562      8266.2559      2956.1739      11222.43       60337.04       87120        
      1700   1600           30.074395      295.25558      8268.0903      2963.2994      11231.39       60327.649      87120        
      1800   1700           32.195872      303.16048      8295.7478      3042.6361      11338.384      60425.287      87120        
      1900   1800           34.238211      309.11458      8277.6477      3102.3937      11380.041      60335.964      87120        
      2000   1900           36.178323      303.77275      8249.1548      3048.781       11297.936      60246.167      87120        
      2100   2000           38.022846      293.38584      8256.9883      2944.534       11201.522      60239.259      87120        
      2200   2100           40.199243      299.89848      8210.455       3009.8973      11220.352      60057.039      87120        
      2300   2200           42.421174      305.3221       8230.9198      3064.3309      11295.251      60150.62       87120        
      2400   2300           44.655575      306.496        8226.4211      3076.1126      11302.534      60114.178      87120        
      2500   2400           46.90129       297.76221      8241.8575      2988.4569      11230.314      60132.228      87120        
      2600   2500           49.108785      295.84601      8235.9077      2969.2252      11205.133      60087.371      87120        
      2700   2600           51.058029      302.58701      8202.8869      3036.8805      11239.767      59987.924      87120        
      2800   2700           52.800825      298.55354      8245.4626      2996.399       11241.862      60114.308      87120        
      2900   2800           54.953154      302.03119      8189.6998      3031.302       11221.002      59966.249      87120        
      3000   2900           57.175461      300.24168      8171.9832      3013.3418      11185.325      59881.908      87120        
      3100   3000           59.396318      295.78927      8214.6601      2968.6557      11183.316      60004.16       87120        
      3200   3100           61.640072      308.94353      8148.7914      3100.677       11249.468      59786.652      87120        
      3300   3200           63.829943      302.90537      8195.242       3040.0757      11235.318      59915.191      87120        
      3400   3300           65.980172      296.65555      8194.8877      2977.35        11172.238      59916.639      87120        
      3500   3400           67.747168      296.28951      8184.1659      2973.6763      11157.842      59890.997      87120        
      3600   3500           69.627158      304.50817      8195.7201      3056.162       11251.882      59953.759      87120        
      3700   3600           71.889945      313.30078      8171.736       3144.408       11316.144      59881.484      87120        
      3800   3700           74.148964      301.52431      8190.2976      3026.2148      11216.512      59929.205      87120        
      3900   3800           76.412866      290.17964      8197.0508      2912.3553      11109.406      59902.288      87120        
      4000   3900           78.618976      294.57637      8199.2808      2956.4826      11155.763      59914.686      87120        
      4100   4000           80.711312      311.80594      8151.1473      3129.4052      11280.553      59766.485      87120        
      4200   4100           82.461772      301.99921      8224.5023      3030.9811      11255.483      60000.639      87120        
      4300   4200           84.384874      293.49175      8203.7136      2945.5969      11149.311      59901.567      87120        
      4400   4300           86.634505      299.12189      8104.2698      3002.1032      11106.373      59608.466      87120        
      4500   4400           88.824038      297.3393       8163.0345      2984.2124      11147.247      59797.876      87120        
      4600   4500           91.075149      308.78062      8159.2787      3099.0419      11258.321      59812.015      87120        
      4700   4600           93.258944      304.56968      8199.1846      3056.7793      11255.964      59910.005      87120        
      4800   4700           95.379951      295.62681      8202.5625      2967.0252      11169.588      59915.411      87120        
      4900   4800           97.103791      296.76172      8150.3459      2978.4156      11128.762      59706.015      87120        
      5000   4900           99.041235      302.77731      8119.5579      3038.7904      11158.348      59605.872      87120        
      5100   5000           101.20993      299.34541      8194.4835      3004.3465      11198.83       59872.564      87120        
      5200   5100           103.39089      298.58918      8240.2691      2996.7567      11237.026      60027.321      87120        
      5300   5200           105.57346      302.03017      8190.1358      3031.2918      11221.428      59858.276      87120        
      5400   5300           107.79562      293.24219      8204.4559      2943.0922      11147.548      59857.947      87120        
      5500   5400           109.90472      298.74891      8156.6119      2998.3598      11154.972      59708.988      87120        
      5600   5500           111.66383      302.01207      8187.2565      3031.1101      11218.367      59830.566      87120        
      5700   5600           113.5056       309.08539      8130.3241      3102.1007      11232.425      59644.086      87120        
      5800   5700           115.7521       299.28284      8139.0995      3003.7185      11142.818      59658.717      87120        
      5900   5800           117.94346      291.84468      8160.9599      2929.0663      11090.026      59745.735      87120        
      6000   5900           120.18651      302.68722      8127.9366      3037.8862      11165.823      59612.407      87120        
      6100   6000           122.39172      300.97291      8199.0258      3020.6808      11219.707      59826.348      87120        
      6200   6100           124.28212      304.72239      8171.9168      3058.312       11230.229      59767.947      87120        
      6300   6200           126.03306      298.21663      8193.5133      2993.0176      11186.531      59864.896      87120        
      6400   6300           128.12047      300.31081      8160.2158      3014.0356      11174.251      59773.935      87120        
      6500   6400           130.3594       300.01989      8167.8614      3011.1159      11178.977      59785.597      87120        
      6600   6500           132.60452      302.04887      8175.4061      3031.4795      11206.886      59796.257      87120        
      6700   6600           134.8321       302.61373      8181.371       3037.1486      11218.52       59791.856      87120        
      6800   6700           137.02118      295.00204      8211.5991      2960.7547      11172.354      59877.038      87120        
      6900   6800           138.7808       301.10246      8154.6089      3021.981       11176.59       59703.477      87120        
      7000   6900           140.63869      301.74667      8162.6043      3028.4465      11191.051      59751.77       87120        
      7100   7000           142.83685      298.2124       8180.6027      2992.9752      11173.578      59794.559      87120        
      7200   7100           145.04824      295.12973      8195.5837      2962.0363      11157.62       59838.654      87120        
      7300   7200           147.32467      301.10959      8162.9065      3022.0525      11184.959      59701.063      87120        
      7400   7300           149.49879      305.32306      8142.5683      3064.3405      11206.909      59665.312      87120        
      7500   7400           151.45048      303.12861      8146.5986      3042.3162      11188.915      59692.025      87120        
      7600   7500           153.24341      295.92535      8193.2128      2970.0215      11163.234      59822.987      87120        
      7700   7600           155.3354       300.87615      8149.4323      3019.7096      11169.142      59688.897      87120        
      7800   7700           157.57989      300.16116      8153.7505      3012.5337      11166.284      59678.869      87120        
      7900   7800           159.81428      296.54645      8194.1585      2976.2551      11170.414      59805.95       87120        
      8000   7900           162.03669      303.23647      8158.5428      3043.3987      11201.942      59720.679      87120        
      8100   8000           164.22581      302.56023      8154.4556      3036.6117      11191.067      59677.455      87120        
      8200   8100           165.94927      297.5584       8163.5345      2986.4114      11149.946      59674.54       87120        
      8300   8200           167.75746      301.11871      8126.4568      3022.1441      11148.601      59553.168      87120        
      8400   8300           169.97265      295.29583      8208.5499      2963.7034      11172.253      59848.073      87120        
      8500   8400           172.13655      304.81268      8153.6734      3059.2182      11212.892      59685.985      87120        
      8600   8500           174.35529      298.94272      8182.0848      3000.3049      11182.39       59754.282      87120        
      8700   8600           176.5751       300.71259      8117.7912      3018.0681      11135.859      59542.559      87120        
      8800   8700           178.56206      294.51294      8141.6452      2955.8459      11097.491      59613.266      87120        
      8900   8800           180.30499      301.70102      8122.0271      3027.9883      11150.015      59546.646      87120        
      9000   8900           182.33993      304.45712      8152.2758      3055.6496      11207.925      59668.244      87120        
      9100   9000           184.52895      297.89746      8192.4371      2989.8143      11182.251      59803.512      87120        
      9200   9100           186.78696      291.48071      8157.8027      2925.4133      11083.216      59589.756      87120        
      9300   9200           188.99975      293.27164      8125.6206      2943.3878      11069.008      59524.66       87120        
      9400   9300           191.24978      298.6414       8177.3421      2997.2808      11174.623      59761.633      87120        
      9500   9400           193.03028      303.78632      8160.4746      3048.9172      11209.392      59689.636      87120        
      9600   9500           194.8096       302.07387      8147.8533      3031.7303      11179.584      59649.532      87120        
      9700   9600           197.09296      296.1235       8163.4662      2972.0102      11135.476      59711.203      87120        
      9800   9700           199.30966      296.03935      8118.4219      2971.1656      11089.588      59532.43       87120        
      9900   9800           201.52641      289.02164      8155.4265      2900.7332      11056.16       59647.913      87120        
     10000   9900           203.79749      296.27417      8191.9958      2973.5224      11165.518      59800.393      87120        
     10100   10000          205.74314      300.89655      8197.9335      3019.9144      11217.848      59822.813      87120        
     10200   10100          207.49655      305.70447      8142.9624      3068.1685      11211.131      59639.188      87120        
     10300   10200          209.49448      295.77716      8151.8279      2968.5342      11120.362      59621.042      87120        
     10400   10300          211.69242      295.76041      8135.2615      2968.366       11103.628      59554.044      87120        
     10500   10400          213.9399       302.54116      8102.7294      3036.4203      11139.15       59460.006      87120        
     10600   10500          216.1551       300.87442      8112.5722      3019.6923      11132.265      59501.06       87120        
     10700   10600          218.35409      295.94563      8156.6344      2970.225       11126.859      59601.766      87120        
     10800   10700          220.12017      299.25798      8146.3003      3003.4691      11149.769      59561.38       87120        
     10900   10800          221.90514      300.51088      8131.746       3016.0436      11147.79       59498.871      87120        
     11000   10900          224.10709      295.30041      8148.099       2963.7493      11111.848      59554.078      87120        
     11100   11000          226.25717      295.32014      8111.0888      2963.9474      11075.036      59443.74       87120        
     11200   11100          228.48154      301.46019      8073.4441      3025.5712      11099.015      59309.38       87120        
     11300   11200          230.6437       303.94691      8125.767       3050.5289      11176.296      59497.739      87120        
     11400   11300          232.74206      304.04805      8126.0386      3051.544       11177.583      59505.337      87120        
     11500   11400          234.46752      293.93467      8140.7653      2950.0423      11090.808      59501.476      87120        
     11600   11500          236.39424      295.8733       8096.7027      2969.4991      11066.202      59330.619      87120        
     11700   11600          238.60279      298.18713      8098.6621      2992.7216      11091.384      59371.44       87120        
     11800   11700          240.80305      298.03754      8123.8943      2991.2202      11115.114      59435.637      87120        
     11900   11800          243.00266      301.52093      8122.5624      3026.1809      11148.743      59449.901      87120        
     12000   11900          245.20527      297.48145      8165.0464      2985.6391      11150.685      59609.487      87120        
     12100   12000          247.0234       307.87814      8084.4973      3089.9843      11174.482      59375.461      87120        
     12200   12100          248.77061      301.50685      8111.2529      3026.0396      11137.292      59439.929      87120        
     12300   12200          250.86389      293.6145       8138.3408      2946.8289      11085.17       59466.908      87120        
     12400   12300          253.08927      298.96957      8142.0672      3000.5744      11142.642      59512.774      87120        
     12500   12400          255.27579      304.41145      8143.1381      3055.1912      11198.329      59537.955      87120        
     12600   12500          257.47052      302.61262      8139.8079      3037.1374      11176.945      59576.948      87120        
     12700   12600          259.63784      300.83491      8134.8094      3019.2957      11154.105      59540.044      87120        
     12800   12700          261.35516      299.89806      8125.8031      3009.8931      11135.696      59497.204      87120        
     12900   12800          263.22471      299.72845      8123.694       3008.1909      11131.885      59475.474      87120        
     13000   12900          265.42117      302.91145      8116.462       3040.1367      11156.599      59397.859      87120        
     13100   13000          267.62908      305.40183      8123.9997      3065.1311      11189.131      59424.846      87120        
     13200   13100          269.8951       301.41215      8140.2406      3025.0891      11165.33       59485.656      87120        
     13300   13200          272.10736      294.03509      8148.5083      2951.0501      11099.558      59506.433      87120        
     13400   13300          274.04562      298.51067      8123.3249      2995.9688      11119.294      59422.035      87120        
     13500   13400          275.74928      303.03783      8169.5387      3041.4051      11210.944      59586.327      87120        
     13600   13500          277.82706      308.17582      8117.036       3092.9719      11210.008      59404.918      87120        
     13700   13600          280.06074      298.20487      8154.8432      2992.8996      11147.743      59523.64       87120        
     13800   13700          282.29157      298.98955      8138.1216      3000.775       11138.897      59457.939      87120        
     13900   13800          284.51157      299.98423      8108.8488      3010.7579      11119.607      59375.368      87120        
     14000   13900          286.71597      298.05636      8101.169       2991.4091      11092.578      59340.34       87120        
     14100   14000          288.40566      297.21176      8091.744       2982.9324      11074.676      59328.575      87120        
     14200   14100          290.15361      299.51732      8131.7222      3006.0718      11137.794      59444.868      87120        
     14300   14200          292.37506      306.59682      8116.3042      3077.1244      11193.429      59417.892      87120        
     14400   14300          294.59357      296.6266       8148.3474      2977.0595      11125.407      59499.006      87120        
     14500   14400          296.76512      297.63441      8109.3122      2987.1742      11096.486      59341.497      87120        
     14600   14500          298.99732      296.55951      8140.5442      2976.3861      11116.93       59435.08       87120        
     14700   14600          300.97249      302.74109      8091.1459      3038.4269      11129.573      59292.168      87120        
     14800   14700          302.72464      300.39594      8097.2717      3014.8901      11112.162      59289.1        87120        
     14900   14800          304.68342      297.3519       8106.6743      2984.3389      11091.013      59312.712      87120        
     15000   14900          306.87268      296.5704       8113.7296      2976.4955      11090.225      59368.946      87120        
     15100   15000          309.06435      306.2561       8122.9987      3073.7049      11196.704      59442.963      87120        
     15200   15100          311.27386      314.04673      8091.535       3151.8946      11243.43       59397.056      87120        
     15300   15200          313.44638      301.0068       8121.7383      3021.0209      11142.759      59447.987      87120        
     15400   15300          315.27308      295.96752      8123.6592      2970.4447      11094.104      59412.834      87120        
     15500   15400          317.02256      300.34526      8112.9539      3014.3814      11127.335      59399.645      87120        
     15600   15500          319.16322      309.39994      8091.9427      3105.2576      11197.2        59332.478      87120        
     15700   15600          321.33747      300.52174      8143.4369      3016.1527      11159.59       59466.596      87120        
     15800   15700          323.56436      299.00007      8130.0399      3000.8806      11130.92       59432.531      87120        
     15900   15800          325.78148      294.37241      8162.717       2954.4355      11117.152      59573.864      87120        
     16000   15900          327.89452      300.12362      8147.5383      3012.1569      11159.695      59534.15       87120        
     16100   16000          329.60998      300.44901      8169.662       3015.4226      11185.085      59599.913      87120        
     16200   16100          331.48827      301.09401      8156.6667      3021.8961      11178.563      59576.175      87120        
     16300   16200          333.69692      301.89298      8123.41        3029.9149      11153.325      59447.145      87120        
     16400   16300          335.90691      300.0249       8104.7616      3011.1661      11115.928      59331.838      87120        
     16500   16400          338.12523      295.98829      8114.8607      2970.6532      11085.514      59348.546      87120        
     16600   16500          340.34065      300.44188      8130.9006      3015.3511      11146.252      59438.963      87120        
     16700   16600          342.23858      308.65836      8123.6703      3097.8149      11221.485      59458.824      87120        
     16800   16700          343.98356      302.58026      8126.2573      3036.8127      11163.07       59462.1        87120        
     16900   16800          346.09512      302.04645      8099.3678      3031.4552      11130.823      59369.623      87120        
     17000   16900          348.3271       300.00749      8110.4705      3010.9914      11121.462      59373.413      87120        
     17100   17000          350.48876      299.28655      8134.2649      3003.7558      11138.021      59447.526      87120        
     17200   17100          352.69312      308.48738      8128.8613      3096.0988      11224.96       59468.696      87120        
     17300   17200          354.85737      306.37548      8131.0709      3074.903       11205.974      59453.055      87120        
     17400   17300          356.59487      298.56609      8103.9876      2996.5249      11100.513      59317.049      87120        
     17500   17400          358.41912      292.98853      8154.4339      2940.5464      11094.98       59467.418      87120        
     17600   17500          360.60467      302.97478      8114.6152      3040.7723      11155.388      59351.537      87120        
     17700   17600          362.81955      300.55486      8138.4027      3016.4851      11154.888      59438.35       87120        
     17800   17700          364.98987      295.83375      8101.1461      2969.1021      11070.248      59275.006      87120        
     17900   17800          367.20933      291.16372      8100.4422      2922.2319      11022.674      59244.613      87120        
     18000   17900          369.19486      299.48152      8105.1758      3005.7125      11110.888      59264.425      87120        
     18100   18000          370.90998      299.94514      8136.4043      3010.3656      11146.77       59372.759      87120        
     18200   18100          372.8727       301.03716      8123.7316      3021.3256      11145.057      59362.118      87120        
     18300   18200          375.08752      294.80685      8163.547       2958.7958      11122.343      59461.219      87120        
     18400   18300          377.25342      301.34366      8168.9299      3024.4017      11193.332      59501.124      87120        
     18500   18400          379.46376      307.90698      8160.5445      3090.2737      11250.818      59538.335      87120        
     18600   18500          381.68401      301.54907      8129.4101      3026.4633      11155.873      59412.017      87120        
     18700   18600          383.47438      296.44464      8141.8357      2975.2333      11117.069      59429.567      87120        
     18800   18700          385.19025      297.80773      8141.7558      2988.9137      11130.67       59411.506      87120        
     18900   18800          387.39037      302.81314      8132.3293      3039.15        11171.479      59345.149      87120        
     19000   18900          389.61115      303.22513      8137.5797      3043.2849      11180.865      59410.632      87120        
     19100   19000          391.78237      297.48158      8111.3546      2985.6404      11096.995      59325.63       87120        
     19200   19100          393.90029      294.87391      8100.2415      2959.4688      11059.71       59270.763      87120        
     19300   19200          395.97934      299.91631      8120.7911      3010.0763      11130.867      59373.876      87120        
     19400   19300          397.6974       304.91262      8095.6105      3060.2212      11155.832      59303.949      87120        
     19500   19400          399.55707      297.42072      8142.6274      2985.0296      11127.657      59445.024      87120        
     19600   19500          401.72454      301.11603      8098.8242      3022.1172      11120.941      59275.986      87120        
     19700   19600          403.92721      293.5308       8170.8603      2945.9888      11116.849      59472.175      87120        
     19800   19700          406.12756      306.39167      8150.9401      3075.0655      11226.006      59423.983      87120        
     19900   19800          408.3307       311.18701      8112.7         3123.1934      11235.893      59338.765      87120        
     20000   19900          410.20887      303.0827       8106.3797      3041.8554      11148.235      59334.691      87120        
     20100   20000          411.91131      292.66201      8173.0732      2937.2693      11110.343      59547.109      87120        
     20200   20100          413.93725      299.84501      8131.2409      3009.3607      11140.602      59402.648      87120        
     20300   20200          416.12618      306.02423      8089.275       3071.3778      11160.653      59249.325      87120        
     20400   20300          418.31164      291.45205      8128.7038      2925.1257      11053.829      59321.395      87120        
     20500   20400          420.50282      293.05207      8120.9165      2941.1841      11062.101      59257.77       87120        
     20600   20500          422.69602      304.15357      8079.9616      3052.6031      11132.565      59145.793      87120        
     20700   20600          424.48217      299.38794      8146.4868      3004.7733      11151.26       59435.196      87120        
     20800   20700          426.19443      305.70095      8079.8695      3068.1332      11148.003      59261.273      87120        
     20900   20800          428.44128      295.88234      8138.4684      2969.5898      11108.058      59443.531      87120        
     21000   20900          430.67898      296.37173      8130.2578      2974.5015      11104.759      59417.837      87120        
     21100   21000          432.92359      302.75218      8135.3532      3038.5382      11173.891      59351.737      87120        
     21200   21100          435.17824      307.04204      8106.8964      3081.5928      11188.489      59248.174      87120        
     21300   21200          437.21296      295.90443      8128.9279      2969.8115      11098.739      59272.641      87120        
     21400   21300          438.9849       292.81434      8140.2973      2938.7982      11079.096      59328.258      87120        
     21500   21400          441.05631      301.71848      8115.5859      3028.1636      11143.75       59312.139      87120        
     21600   21500          443.34283      305.1192       8090.5012      3062.2945      11152.796      59228.949      87120        
     21700   21600          445.62235      300.86477      8113.0837      3019.5954      11132.679      59306.163      87120        
     21800   21700          447.90172      302.32788      8078.147       3034.2798      11112.427      59141.52       87120        
     21900   21800          450.10586      295.69071      8114.4273      2967.6665      11082.094      59281.811      87120        
     22000   21900          451.92627      296.24882      8146.5559      2973.268       11119.824      59406.012      87120        
     22100   22000          453.76806      311.75291      8116.7841      3128.873       11245.657      59344.028      87120        
     22200   22100          456.02786      301.99827      8140.4639      3030.9716      11171.436      59415.461      87120        
     22300   22200          458.28944      296.55787      8116.7168      2976.3696      11093.086      59301.248      87120        
     22400   22300          460.55275      297.45428      8116.2194      2985.3664      11101.586      59294.924      87120        
     22500   22400          462.81169      300.69224      8148.4909      3017.8638      11166.355      59458.092      87120        
     22600   22500          464.76821      305.33072      8107.1618      3064.4174      11171.579      59290.106      87120        
     22700   22600          466.5517       293.89518      8116.1348      2949.6459      11065.781      59302.833      87120        
     22800   22700          468.71776      295.88627      8087.3339      2969.6292      11056.963      59238.021      87120        
     22900   22800          470.99802      294.09073      8146.2623      2951.6085      11097.871      59423.983      87120        
     23000   22900          473.23162      302.87406      8108.6044      3039.7614      11148.366      59285.869      87120        
     23100   23000          475.46938      301.75965      8111.7435      3028.5768      11140.32       59254.743      87120        
     23200   23100          477.62107      297.43941      8098.8173      2985.2172      11084.034      59212.459      87120        
     23300   23200          479.38899      291.96204      8102.0307      2930.2442      11032.275      59196.999      87120        
     23400   23300          481.32816      296.17208      8126.0871      2972.4977      11098.585      59260.767      87120        
     23500   23400          483.5559       306.7          8107.102       3078.1601      11185.262      59208.459      87120        
     23600   23500          485.83451      301.11402      8117.3432      3022.0969      11139.44       59253.415      87120        
     23700   23600          488.08228      298.87706      8079.5641      2999.646       11079.21       59142.465      87120        
     23800   23700          490.32788      298.45796      8086.223       2995.4397      11081.663      59134.235      87120        
     23900   23800          492.25704      300.07831      8089.2983      3011.7021      11101          59157.443      87120        
     24000   23900          493.99369      296.10845      8096.227       2971.8592      11068.086      59183.31       87120        
     24100   24000          496.17251      292.68687      8053.9459      2937.5189      10991.465      59021.934      87120        
     24200   24100          498.43182      294.57084      8094.3591      2956.4271      11050.786      59124.123      87120        
     24300   24200          500.68982      301.37445      8107.9259      3024.7108      11132.637      59168.313      87120        
     24400   24300          502.9467       303.10874      8092.8311      3042.1167      11134.948      59158.646      87120        
     24500   24400          505.04672      295.55131      8111.8361      2966.2675      11078.104      59198.567      87120        
     24600   24500          506.82591      292.53809      8117.9412      2936.0256      11053.967      59188.756      87120        
     24700   24600          508.83459      304.94325      8101.0695      3060.5286      11161.598      59188.385      87120        
     24800   24700          511.11317      304.78292      8112.6925      3058.9195      11171.612      59247.671      87120        
     24900   24800          513.43332      304.31212      8063.8793      3054.1943      11118.074      59078.038      87120        
     25000   24900          515.70032      293.45023      8100.8878      2945.1802      11046.068      59151.838      87120        
     25100   25000          517.92465      298.83959      8063.5815      2999.2699      11062.851      59075.841      87120        
     25200   25100          519.7227       295.12555      8131.3636      2961.9944      11093.358      59261.139      87120        
     25300   25200          521.51598      304.0108       8091.855       3051.1702      11143.025      59130.403      87120        
     25400   25300          523.77073      302.48382      8089.7156      3035.8448      11125.56       59146.19       87120        
     25500   25400          526.03599      296.79309      8054.694       2978.7305      11033.424      58969.424      87120        
     25600   25500          528.30518      292.25995      8052.0659      2933.2341      10985.3        58987.307      87120        
     25700   25600          530.56239      297.66051      8074.1361      2987.4362      11061.572      59070.616      87120        
     25800   25700          532.57813      301.0424       8089.8028      3021.3782      11111.181      59117.932      87120        
     25900   25800          534.3569       301.41755      8106.5971      3025.1433      11131.74       59183.94       87120        
     26000   25900          536.452        305.55823      8041.4731      3066.7008      11108.174      58985.125      87120        
     26100   26000          538.68642      293.5129       8076.7633      2945.8092      11022.572      59090.865      87120        
     26200   26100          540.92218      294.88749      8100.8568      2959.6051      11060.462      59192.378      87120        
     26300   26200          543.14582      301.4405       8086.7578      3025.3737      11112.132      59110.516      87120        
     26400   26300          545.14273      301.80066      8068.8646      3028.9884      11097.853      59002.811      87120        
     26500   26400          546.94671      294.94448      8112.1314      2960.1771      11072.308      59137.713      87120        
     26600   26500          549.03683      301.29596      8085.8165      3023.923       11109.739      59031.582      87120        
     26700   26600          551.29321      309.41222      8103.2555      3105.3809      11208.636      59159.054      87120        
     26800   26700          553.55038      305.31944      8105.6406      3064.3042      11169.945      59169.213      87120        
     26900   26800          555.77403      296.4802       8102.3992      2975.5902      11077.989      59150.145      87120        
     27000   26900          557.98101      297.38456      8104.752       2984.6666      11089.419      59171.479      87120        
     27100   27000          559.66005      306.07658      8052.0944      3071.9031      11123.998      59002.96       87120        
     27200   27100          561.39896      296.43609      8119.0664      2975.1475      11094.214      59205.033      87120        
     27300   27200          563.56498      299.12208      8035.1788      3002.1051      11037.284      58899.952      87120        
     27400   27300          565.73336      290.29602      8054.3875      2913.5234      10967.911      58933.416      87120        
     27500   27400          567.90362      295.95694      8071.9558      2970.3385      11042.294      59016.729      87120        
     27600   27500          570.08064      303.93667      8057.7602      3050.4262      11108.186      59000.268      87120        
     27700   27600          572.09316      294.30056      8143.2225      2953.7144      11096.937      59298.443      87120        
     27800   27700          573.79571      303.14165      8084.286       3042.447       11126.733      59105.661      87120        
     27900   27800          575.73355      303.78376      8089.5399      3048.8915      11138.431      59121.018      87120        
     28000   27900          577.91006      295.51377      8104.0643      2965.8907      11069.955      59095.512      87120        
     28100   28000          580.08902      297.54586      8049.2052      2986.2855      11035.491      58918.666      87120        
     28200   28100          582.28629      302.10654      8043.8695      3032.0582      11075.928      58907.181      87120        
     28300   28200          584.43084      309.08223      8057.7146      3102.069       11159.784      58992.841      87120        
     28400   28300          586.27292      304.25647      8102.838       3053.6358      11156.474      59160.606      87120        
     28500   28400          588.00381      295.37294      8085.9998      2964.4773      11050.477      59093.778      87120        
     28600   28500          590.05905      298.71566      8049.0198      2998.0261      11047.046      59005.327      87120        
     28700   28600          592.26875      300.76709      8048.8547      3018.6151      11067.47       59000.657      87120        
     28800   28700          594.42897      300.52394      8072.2915      3016.1747      11088.466      59046.358      87120        
     28900   28800          596.63665      304.21899      8090.133       3053.2596      11143.393      59101.858      87120        
     29000   28900          598.82082      305.77932      8116.0713      3068.9197      11184.991      59202.3        87120        
     29100   29000          600.48699      301.1909       8079.2764      3022.8686      11102.145      59052.098      87120        
     29200   29100          602.2468       297.65803      8068.6878      2987.4113      11056.099      59008.402      87120        
     29300   29200          604.40233      301.06667      8080.4441      3021.6218      11102.066      59034.874      87120        
     29400   29300          606.61089      304.43052      8095.4099      3055.3826      11150.793      59101.855      87120        
     29500   29400          608.77454      302.04809      8076.0708      3031.4716      11107.542      59071.855      87120        
     29600   29500          610.9822       290.91644      8072.7182      2919.7501      10992.468      59011.936      87120        
     29700   29600          612.96243      297.70223      8043.3344      2987.8549      11031.189      58914.708      87120        
     29800   29700          614.65238      304.58155      8013.2335      3056.8985      11070.132      58814.268      87120        
     29900   29800          616.58805      297.21179      8100.3569      2982.9327      11083.29       59080.145      87120        
     30000   29900          618.80578      306.37986      8075.4188      3074.9469      11150.366      58990.263      87120        
     30100   30000          620.93397      300.10356      8102.0532      3011.9555      11114.009      59078.674      87120        
     30200   30100          623.07385      294.47725      8054.6424      2955.4877      11010.13       58941.702      87120        
     30300   30200          625.26746      294.82801      8096.8277      2959.0081      11055.836      59108.324      87120        
     30400   30300          627.10371      306.5556       8050.5291      3076.7107      11127.24       58971.871      87120        
     30500   30400          628.83041      302.34056      8056.138       3034.407       11090.545      58917.711      87120        
     30600   30500          630.88195      294.18418      8084.6998      2952.5464      11037.246      58985.237      87120        
     30700   30600          633.08804      296.81168      8087.3063      2978.917       11066.223      59010.902      87120        
     30800   30700          635.24143      300.71476      8081.1479      3018.0898      11099.238      58999.314      87120        
     30900   30800          637.44095      299.76007      8082.273       3008.5082      11090.781      58994.921      87120        
     31000   30900          639.62954      296.58069      8112.4838      2976.5987      11089.083      59103.231      87120        
     31100   31000          641.28453      302.03435      8064.7973      3031.3338      11096.131      58961.259      87120        
     31200   31100          643.02709      295.25072      8063.6079      2963.2506      11026.859      58958.727      87120        
     31300   31200          645.16752      293.52231      8039.6236      2945.9036      10985.527      58845.07       87120        
     31400   31300          647.31698      298.57819      8097.8106      2996.6464      11094.457      59079.343      87120        
     31500   31400          649.51797      306.53877      8043.6429      3076.5419      11120.185      58876.597      87120        
     31600   31500          651.67088      298.31313      8057.7122      2993.9861      11051.698      58958.969      87120        
     31700   31600          653.67875      297.7266       8053.4577      2988.0995      11041.557      58903.656      87120        
     31800   31700          655.39918      303.1125       8050.7366      3042.1545      11092.891      58903.909      87120        
     31900   31800          657.25264      305.13205      8097.5466      3062.4235      11159.97       59119.094      87120        
     32000   31900          659.46127      307.40535      8103.4266      3085.2392      11188.666      59099.713      87120        
     32100   32000          661.62685      299.22978      8061.8476      3003.186       11065.034      58878.739      87120        
     32200   32100          663.74773      300.03292      8041.2007      3011.2466      11052.447      58797.673      87120        
     32300   32200          665.86531      305.28495      8014.354       3063.958       11078.312      58748.007      87120        
     32400   32300          667.73587      301.76067      8071.2265      3028.587       11099.813      58960.086      87120        
     32500   32400          669.44394      306.51162      8081.7941      3076.2693      11158.063      59018.889      87120        
     32600   32500          671.39809      303.51386      8092.4363      3046.1827      11138.619      59048.237      87120        
     32700   32600          673.54649      295.92807      8064.7944      2970.0487      11034.843      58873.89       87120        
     32800   32700          675.6842       297.52569      8046.6818      2986.0831      11032.765      58824.254      87120        
     32900   32800          677.87118      299.34071      8078.8526      3004.2993      11083.152      58964.252      87120        
     33000   32900          680.00525      305.93746      8052.4266      3070.5069      11122.933      58901.904      87120        
     33100   33000          681.77759      295.49133      8110.0247      2965.6655      11075.69       59094.346      87120        
     33200   33100          683.44114      303.24413      8024.7095      3043.4755      11068.185      58782.615      87120        
     33300   33200          685.47966      297.31015      8042.7227      2983.9199      11026.643      58831.071      87120        
     33400   33300          687.64521      294.54651      8040.6266      2956.1829      10996.809      58774.463      87120        
     33500   33400          689.77767      298.83765      8069.8596      2999.2504      11069.11       58916.104      87120        
     33600   33500          691.91231      306.47104      8046.584       3075.8621      11122.446      58836.748      87120        
     33700   33600          694.04747      303.18231      8021.1128      3042.8552      11063.968      58744.652      87120        
     33800   33700          695.72188      297.6372       8016.3213      2987.2022      11003.524      58707.604      87120        
     33900   33800          697.42639      295.67012      8070.9462      2967.4598      11038.406      58933.078      87120        
     34000   33900          699.56809      304.38939      8035.1539      3054.9698      11090.124      58851.34       87120        
     34100   34000          701.67426      299.96997      8060.2499      3010.6149      11070.865      58901.062      87120        
     34200   34100          703.79876      299.12978      8046.4889      3002.1824      11048.671      58840.095      87120        
     34300   34200          705.87769      297.70141      8063.3007      2987.8467      11051.147      58926.169      87120        
     34400   34300          707.92525      299.3484       8074.7843      3004.3765      11079.161      58921.504      87120        
     34500   34400          709.60137      312.57449      8049.2009      3137.1187      11186.32       58837.603      87120        
     34600   34500          711.36011      307.26445      8080.461       3083.8251      11164.286      58972.818      87120        
     34700   34600          713.50702      298.0615       8075.2836      2991.4607      11066.744      58901.497      87120        
     34800   34700          715.65094      303.64952      7996.508       3047.5442      11044.052      58687.236      87120        
     34900   34800          717.78934      296.15114      8044.4353      2972.2876      11016.723      58802.255      87120        
     35000   34900          719.88567      298.39871      8041.5675      2994.8451      11036.413      58782.759      87120        
     35100   35000          721.83362      304.43585      8064.9019      3055.4361      11120.338      58917.402      87120        
     35200   35100          723.49143      308.26141      8038.2234      3093.8309      11132.054      58799.743      87120        
     35300   35200          725.37444      301.19265      8010.5733      3022.8862      11033.459      58705.63       87120        
     35400   35300          727.50692      292.41159      8083.6662      2934.756       11018.422      58943.355      87120        
     35500   35400          729.68491      296.06296      8093.6298      2971.4026      11065.032      59015.88       87120        
     35600   35500          731.82472      303.23693      8069.6912      3043.4033      11113.094      58964.138      87120        
     35700   35600          733.95019      300.77022      8055.9345      3018.6464      11074.581      58873.702      87120        
     35800   35700          735.82442      290.78112      8050.8743      2918.392       10969.266      58792.5        87120        
     35900   35800          737.46419      294.67751      8051.0537      2957.4977      11008.551      58802.609      87120        
     36000   35900          739.40482      303.16416      8014.8353      3042.673       11057.508      58723.217      87120        
     36100   36000          741.50674      296.59071      8067.6115      2976.6993      11044.311      58882.926      87120        
     36200   36100          743.62285      296.50934      8070.8938      2975.8826      11046.776      58879.573      87120        
     36300   36200          745.77653      307.62964      8063.2582      3087.4902      11150.748      58844.568      87120        
     36400   36300          747.82615      307.19389      8060.5387      3083.1169      11143.656      58894.227      87120        
     36500   36400          749.49085      300.26633      8033.5458      3013.5892      11047.135      58725.859      87120        
     36600   36500          751.31615      294.16242      8076.0962      2952.3281      11028.424      58817.099      87120        
     36700   36600          753.43409      300.41885      8073.0981      3015.12        11088.218      58843.245      87120        
     36800   36700          755.53976      301.96131      8098.4146      3030.6007      11129.015      58928.499      87120        
     36900   36800          757.69395      306.66115      8017.8375      3077.7702      11095.608      58695.399      87120        
     37000   36900          759.86328      294.06953      8083.2343      2951.3958      11034.63       58961.419      87120        
     37100   37000          761.76108      301.32727      8038.6832      3024.2372      11062.92       58848.219      87120        
     37200   37100          763.41826      300.36614      8063.393       3014.591       11077.984      58900.765      87120        
     37300   37200          765.2777       299.80525      8077.2369      3008.9616      11086.199      58867.794      87120        
     37400   37300          767.44673      304.8388       8028.0075      3059.4803      11087.488      58637.945      87120        
     37500   37400          769.56401      296.03569      8029.6938      2971.1289      11000.823      58636.171      87120        
     37600   37500          771.68674      295.07595      8025.5243      2961.4966      10987.021      58638.585      87120        
     37700   37600          773.7659       301.62032      8039.9185      3027.1784      11067.097      58722.835      87120        
     37800   37700          775.46414      297.81032      8113.6298      2988.9397      11102.57       58983.692      87120        
     37900   37800          777.18039      302.07172      8067.1047      3031.7088      11098.814      58815.577      87120        
     38000   37900          779.36382      297.57979      8088.1912      2986.6261      11074.817      58915.647      87120        
     38100   38000          781.44857      300.29793      8055.6946      3013.9064      11069.601      58833.225      87120        
     38200   38100          783.54561      296.4264       8114.4264      2975.0502      11089.477      58996.616      87120        
     38300   38200          785.65193      311.84537      8051.6959      3129.8009      11181.497      58816.155      87120        
     38400   38300          787.68136      300.91944      8105.675       3020.1441      11125.819      58952.917      87120        
     38500   38400          789.33862      293.54017      8117.4495      2946.0828      11063.532      59060.938      87120        
     38600   38500          791.12231      301.05718      8066.9278      3021.5265      11088.454      58922.442      87120        
     38700   38600          793.24457      299.26791      8115.1915      3003.5687      11118.76       59078.05       87120        
     38800   38700          795.40587      308.14011      8052.1188      3092.6135      11144.732      58865.07       87120        
     38900   38800          797.57517      295.91066      8103.142       2969.874       11073.016      59025.904      87120        
     39000   38900          799.70262      303.16329      8001.0085      3042.6643      11043.673      58627.11       87120        
     39100   39000          801.58196      297.52211      8071.4071      2986.0472      11057.454      58840.117      87120        
     39200   39100          803.22846      302.82841      8120.8744      3039.3032      11160.178      59081.53       87120        
     39300   39200          805.11478      306.49036      8080.3456      3076.056       11156.402      58948.43       87120        
     39400   39300          807.23053      303.68841      8029.3571      3047.9345      11077.292      58749.337      87120        
     39500   39400          809.38493      296.33113      8070.0404      2974.0941      11044.134      58820.592      87120        
     39600   39500          811.45145      301.0117       8049.6366      3021.0701      11070.707      58720.799      87120        
     39700   39600          813.56203      299.8007       8123.7564      3008.9159      11132.672      58976.827      87120        
     39800   39700          815.41561      308.08723      8091.099       3092.0828      11183.182      58921.956      87120        
     39900   39800          817.04636      297.35388      8072.8058      2984.3587      11057.165      58812.303      87120        
     40000   39900          818.91969      295.51057      8069.7585      2965.8586      11035.617      58814.719      87120        
     40100   40000          820.99665      303.5588       8041.1965      3046.6337      11087.83       58707.25       87120        
     40200   40100          823.04198      302.33526      8076.6606      3034.3538      11111.014      58866.193      87120        
     40300   40200          825.09574      300.59991      8077.8653      3016.9372      11094.802      58861.338      87120        
     40400   40300          827.15218      293.57995      8068.9856      2946.4821      11015.468      58837.588      87120        
     40500   40400          828.95674      294.03783      8069.1497      2951.0776      11020.227      58823.628      87120        
     40600   40500          830.57273      302.2981       8082.2845      3033.9809      11116.265      58908.076      87120        
     40700   40600          832.1952       305.69999      8054.1241      3068.1235      11122.248      58825.599      87120        
     40800   40700          834.1937       303.72825      8018.1651      3048.3344      11066.499      58617.227      87120        
     40900   40800          836.26141      296.82581      8053.9533      2979.0588      11033.012      58715.432      87120        
     41000   40900          838.33545      300.15859      8036.7927      3012.5079      11049.301      58667.375      87120        
     41100   41000          840.36903      300.34491      8039.0247      3014.3778      11053.403      58636.612      87120        
     41200   41100          842.41697      298.1295       8035.2173      2992.1431      11027.36       58633.943      87120        
     41300   41200          844.09334      287.70797      8040.893       2887.5487      10928.442      58652.59       87120        
     41400   41300          845.74107      293.66789      8061.879       2947.3647      11009.244      58795.009      87120        
     41500   41400          847.71009      301.32678      8061.7319      3024.2323      11085.964      58758.886      87120        
     41600   41500          849.7795       304.90268      8029.9592      3060.1215      11090.081      58625.242      87120        
     41700   41600          851.88381      296.02737      8055.5367      2971.0454      11026.582      58668.853      87120        
     41800   41700          853.9445       297.42604      8008.0031      2985.083       10993.086      58469.323      87120        
     41900   41800          856.00789      297.22736      8069.3932      2983.089       11052.482      58704.482      87120        
     42000   41900          857.73269      306.78755      8061.5122      3079.0387      11140.551      58720.058      87120        
     42100   42000          859.33039      300.60931      8071.9467      3017.0315      11088.978      58788.302      87120        
     42200   42100          861.3269       299.09593      8037.2178      3001.8426      11039.06       58661.888      87120        
     42300   42200          863.37439      298.82992      8028.887       2999.1728      11028.06       58637.171      87120        
     42400   42300          865.41721      302.44885      8039.6498      3035.4939      11075.144      58700.714      87120        
     42500   42400          867.4666       309.00817      8049.1563      3101.3258      11150.482      58695.062      87120        
     42600   42500          869.57253      299.36275      8066.3041      3004.5205      11070.825      58714.02       87120        
     42700   42600          871.26397      300.26103      8009.6361      3013.5361      11023.172      58522.536      87120        
     42800   42700          872.87682      300.51935      8004.4201      3016.1286      11020.549      58551.739      87120        
     42900   42800          874.82642      299.38634      8031.1341      3004.7573      11035.891      58635.541      87120        
     43000   42900          876.89035      309.16215      8001.1019      3102.8711      11103.973      58569.712      87120        
     43100   43000          878.91713      306.12795      8032.8231      3072.4187      11105.242      58677.447      87120        
     43200   43100          881.01511      297.31849      8024.4363      2984.0036      11008.44       58547.651      87120        
     43300   43200          882.95421      296.38328      8036.4914      2974.6174      11011.109      58579.607      87120        
     43400   43300          884.5618       300.80567      8046.38        3019.0023      11065.382      58658.115      87120        
     43500   43400          886.30646      302.00125      8048.6106      3031.0016      11079.612      58654.615      87120        
     43600   43500          888.38382      302.36697      8014.8136      3034.672       11049.486      58563.529      87120        
     43700   43600          890.49305      301.6319       8001.8087      3027.2946      11029.103      58522.393      87120        
     43800   43700          892.5528       295.58007      8043.2266      2966.5561      11009.783      58662.076      87120        
     43900   43800          894.61028      298.16111      8063.1177      2992.4604      11055.578      58696.149      87120        
     44000   43900          896.55486      304.61121      8103.4122      3057.1961      11160.608      58827.734      87120        
     44100   44000          898.14364      307.52177      8035.2577      3086.4076      11121.665      58581.822      87120        
     44200   44100          899.86758      298.29711      8058.1714      2993.8254      11051.997      58647.103      87120        
     44300   44200          901.90582      297.66559      8047.602       2987.4872      11035.089      58644.305      87120        
     44400   44300          903.93968      296.654        8091.446       2977.3345      11068.78       58851.179      87120        
     44500   44400          905.97612      307.16255      8073.3686      3082.8024      11156.171      58779.558      87120        
     44600   44500          908.06459      303.83853      8076.5579      3049.4412      11125.999      58786.024      87120        
     44700   44600          910.03015      299.83886      8043.9211      3009.299       11053.22       58680.236      87120        
     44800   44700          911.66495      296.45901      8072.9149      2975.3775      11048.292      58765.264      87120        
     44900   44800          913.32467      304.80991      8020.663       3059.1904      11079.853      58546.615      87120        
     45000   44900          915.38714      300.76549      8067.8042      3018.599       11086.403      58701.596      87120        
     45100   45000          917.36037      300.41275      8073.4445      3015.0588      11088.503      58740.928      87120        
     45200   45100          919.39295      296.6239       8063.1301      2977.0324      11040.162      58650.943      87120        
     45300   45200          921.4197       294.55327      8049.4737      2956.2507      11005.724      58641.366      87120        
     45400   45300          923.43084      300.1264       8067.9472      3012.1849      11080.132      58771.38       87120        
     45500   45400          925.02128      305.55205      8066.3412      3066.6388      11132.98       58778.366      87120        
     45600   45500          926.63391      302.59294      8059.9355      3036.9399      11096.875      58763.168      87120        
     45700   45600          928.59182      300.69766      8060.6359      3017.9183      11078.554      58759.136      87120        
     45800   45700          930.62679      299.26571      8076.5708      3003.5466      11080.117      58777.834      87120        
     45900   45800          932.66749      304.61896      8019.1252      3057.2739      11076.399      58529.428      87120        
     46000   45900          934.70484      294.22952      8050.6302      2953.0014      11003.632      58581.978      87120        
     46100   46000          936.53763      294.9837       8021.5375      2960.5707      10982.108      58470.333      87120        
     46200   46100          938.12021      306.57049      8017.395       3076.8602      11094.255      58540.368      87120        
     46300   46200          939.83094      301.43113      8061.364       3025.2796      11086.644      58754.379      87120        
     46400   46300          941.86133      298.95779      8050.4121      3000.4562      11050.868      58732.795      87120        
     46500   46400          943.89748      297.29265      8041.8903      2983.7442      11025.635      58667.566      87120        
     46600   46500          945.93765      303.98454      8036.5157      3050.9066      11087.422      58631.587      87120        
     46700   46600          947.97738      308.03891      8058.378       3091.5979      11149.976      58715.061      87120        
     46800   46700          949.91718      298.55947      8081.4         2996.4585      11077.858      58780.756      87120        
     46900   46800          951.51814      298.46447      8044.9639      2995.5051      11040.469      58656.688      87120        
     47000   46900          953.20188      296.43801      8085.8222      2975.1667      11060.989      58783.913      87120        
     47100   47000          955.21397      304.76785      8023.4031      3058.7682      11082.171      58557.089      87120        
     47200   47100          957.24594      291.14268      8054.2205      2922.0207      10976.241      58643.085      87120        
     47300   47200          959.22315      295.52093      8018.8659      2965.9626      10984.828      58522.888      87120        
     47400   47300          961.25004      300.56574      8054.0853      3016.5942      11070.679      58633.558      87120        
     47500   47400          963.25819      306.18424      8017.1809      3072.9837      11090.165      58578.809      87120        
     47600   47500          964.85532      297.60227      8049.6864      2986.8516      11036.538      58725.158      87120        
     47700   47600          966.4761       298.73176      8040.8888      2998.1877      11039.076      58713.649      87120        
     47800   47700          968.50008      307.596        8059.6122      3087.1527      11146.765      58778.602      87120        
     47900   47800          970.49981      309.57061      8044.7203      3106.9706      11151.691      58695.974      87120        
     48000   47900          972.54457      299.10298      8052.4275      3001.9134      11054.341      58666.508      87120        
     48100   48000          974.55259      295.08688      8092.0414      2961.6063      11053.648      58831.321      87120        
     48200   48100          976.56939      303.43017      8063.6143      3045.3427      11108.957      58746.011      87120        
     48300   48200          978.20171      305.22396      8055.8679      3063.3459      11119.214      58698.744      87120        
     48400   48300          979.79434      294.04132      8069.772       2951.1126      11020.885      58721.679      87120        
     48500   48400          981.7344       293.74533      8073.2075      2948.1419      11021.349      58746.341      87120        
     48600   48500          983.77082      300.68077      8045.1769      3017.7487      11062.926      58654.705      87120        
     48700   48600          985.80008      297.72848      8078.0409      2988.1184      11066.159      58741.612      87120        
     48800   48700          987.7852       298.93579      8053.7738      3000.2355      11054.009      58660.379      87120        
     48900   48800          989.72073      299.56167      8049.9563      3006.517       11056.473      58619.651      87120        
     49000   48900          991.32246      305.98824      8005.8377      3071.0165      11076.854      58478.588      87120        
     49100   49000          992.95804      302.74144      8003.4117      3038.4304      11041.842      58445.251      87120        
     49200   49100          994.98548      293.09229      8034.4816      2941.5878      10976.069      58569.129      87120        
     49300   49200          996.97401      297.88185      8019.928       2989.6577      11009.586      58534.297      87120        
     49400   49300          999.00451      305.63427      8018.8185      3067.464       11086.282      58581.385      87120        
     49500   49400          1000.9826      304.72909      8009.1991      3058.3792      11067.578      58519.711      87120        
     49600   49500          1003.003       294.09038      8073.1236      2951.605       11024.729      58694.922      87120        
     49700   49600          1004.5875      304.13571      7971.8904      3052.4238      11024.314      58369.229      87120        
     49800   49700          1006.1875      295.95354      8028.0714      2970.3043      10998.376      58531.562      87120        
     49900   49800          1008.1763      296.83272      8047.5775      2979.1282      11026.706      58607.694      87120        
     50000   49900          1010.2013      307.08596      8029.3532      3082.0337      11111.387      58535.149      87120        
     50100   50000          1012.1991      299.37258      8041.9011      3004.6192      11046.52       58613.723      87120        
     50200   50100          1014.2087      295.49051      8035.4316      2965.6572      11001.089      58558.653      87120        
     50300   50200          1016.218       297.57582      8058.2816      2986.5862      11044.868      58649.426      87120        
     50400   50300          1017.8776      309.73895      7994.4319      3108.6601      11103.092      58433.35       87120        
     50500   50400          1019.463       298.26406      8059.2889      2993.4936      11052.783      58619.726      87120        
     50600   50500          1021.3713      302.68032      8017.4753      3037.8169      11055.292      58466.121      87120        
     50700   50600          1023.3569      302.66859      8022.4315      3037.6992      11060.131      58511.494      87120        
     50800   50700          1025.3928      298.51238      8040.3581      2995.9859      11036.344      58586.426      87120        
     50900   50800          1027.4286      297.21917      8027.9137      2983.0067      11010.92       58515.702      87120        
     51000   50900          1029.4665      297.4282       8059.1427      2985.1047      11044.247      58573.508      87120        
     51100   51000          1031.1949      306.73265      8036.1778      3078.4877      11114.665      58556.551      87120        
     51200   51100          1032.7792      300.1984       8080.5309      3012.9075      11093.438      58684.489      87120        
     51300   51200          1034.5518      296.53751      8023.3506      2976.1653      10999.516      58458.619      87120        
     51400   51300          1036.5767      296.04911      8003.8737      2971.2636      10975.137      58440.502      87120        
     51500   51400          1038.6046      297.67657      8035.2051      2987.5974      11022.803      58574.269      87120        
     51600   51500          1040.6441      300.93347      8021.4949      3020.2849      11041.78       58576.413      87120        
     51700   51600          1042.6727      298.49622      8034.1198      2995.8237      11029.943      58621.79       87120        
     51800   51700          1044.5092      300.337        8036.6782      3014.2985      11050.977      58617.993      87120        
     51900   51800          1046.109       311.69088      8041.9137      3128.2505      11170.164      58602.117      87120        
     52000   51900          1047.8703      304.68785      8061.847       3057.9653      11119.812      58597.503      87120        
     52100   52000          1049.8765      301.53081      8030.1692      3026.28        11056.449      58500.925      87120        
     52200   52100          1051.8933      297.8265       8059.1266      2989.1022      11048.229      58592.133      87120        
     52300   52200          1053.9175      303.36587      8066.0089      3044.6974      11110.706      58636.511      87120        
     52400   52300          1055.9082      307.54679      8032.3892      3086.6588      11119.048      58558.635      87120        
     52500   52400          1057.8332      295.10347      8024.6749      2961.7727      10986.448      58531.577      87120        
     52600   52500          1059.4217      295.60985      8034.2044      2966.855       11001.059      58542.201      87120        
     52700   52600          1061.0777      301.43732      8048.7299      3025.3417      11074.072      58590.473      87120        
     52800   52700          1063.1601      304.60691      8046.4374      3057.1529      11103.59       58549.562      87120        
     52900   52800          1065.1716      300.10862      8029.2768      3012.0064      11041.283      58460.131      87120        
     53000   52900          1067.1736      291.50478      8066.3944      2925.6549      10992.049      58593.491      87120        
     53100   53000          1069.0899      304.93183      8020.2581      3060.414       11080.672      58432.595      87120        
     53200   53100          1071.0647      302.53754      8048.8573      3036.384       11085.241      58587.219      87120        
     53300   53200          1072.6325      299.73236      8063.0477      3008.2301      11071.278      58632.95       87120        
     53400   53300          1074.2457      293.3557       8113.0503      2944.2315      11057.282      58762.867      87120        
     53500   53400          1076.1507      302.15696      8057.1518      3032.5644      11089.716      58550.031      87120        
     53600   53500          1078.1938      302.42101      8103.581       3035.2144      11138.795      58733.169      87120        
     53700   53600          1080.1891      305.77035      8057.2846      3068.8297      11126.114      58600.234      87120        
     53800   53700          1082.1851      296.22439      8042.9271      2973.0228      11015.95       58553.937      87120        
     53900   53800          1084.1852      300.11625      7995.8644      3012.083       11007.947      58420.873      87120        
     54000   53900          1085.8565      300.03503      8029.5279      3011.2678      11040.796      58547.575      87120        
     54100   54000          1087.4056      307.44837      8025.0717      3085.6709      11110.743      58492.765      87120        
     54200   54100          1089.2782      306.82975      7985.7541      3079.4623      11065.216      58297.842      87120        
     54300   54200          1091.2615      292.90356      8029.8651      2939.6936      10969.559      58428.186      87120        
     54400   54300          1093.2441      297.12611      8052.0132      2982.0727      11034.086      58564.322      87120        
     54500   54400          1095.2209      303.1177       8067.6281      3042.2067      11109.835      58625.716      87120        
     54600   54500          1097.2052      303.38629      8052.5674      3044.9024      11097.47       58567.137      87120        
     54700   54600          1098.993       296.43673      8059.6062      2975.1539      11034.76       58601.784      87120        
     54800   54700          1100.5999      302.51247      8018.344       3036.1323      11054.476      58439.877      87120        
     54900   54800          1102.3248      309.16564      8059.0931      3102.9061      11161.999      58613.926      87120        
     55000   54900          1104.3119      308.85601      8059.0137      3099.7986      11158.812      58602.944      87120        
     55100   55000          1106.2709      302.14113      8033.0361      3032.4054      11065.441      58474.767      87120        
     55200   55100          1108.2488      297.32198      8025.6473      2984.0386      11009.686      58394.522      87120        
[...]
     86400   86300          1680.9764      303.00782      7982.4055      3041.1039      11023.509      57966.398      87120        
     86500   86400          1682.9197      305.18852      7990.4711      3062.9902      11053.461      58056.767      87120        
     86600   86500          1684.8731      295.04755      8022.3998      2961.2115      10983.611      58171.119      87120        
     86700   86600          1686.7307      293.02688      7983.2426      2940.9313      10924.174      58016.82       87120        
     86800   86700          1688.6677      300.02356      7966.1647      3011.1527      10977.317      57952.124      87120        
     86900   86800          1690.561       301.27404      8000.3976      3023.703       11024.101      58099.237      87120        
     87000   86900          1692.1476      305.48615      7947.4199      3065.9773      11013.397      57882.428      87120        
     87100   87000          1693.6179      300.54651      7955.8211      3016.4012      10972.222      57896.523      87120        
     87200   87100          1695.3089      294.34669      7986.1669      2954.1774      10940.344      58001.573      87120        
     87300   87200          1697.1867      303.50899      7949.3167      3046.1339      10995.451      57851.369      87120        
     87400   87300          1699.1425      306.01083      7967.6408      3071.2433      11038.884      57889.326      87120        
     87500   87400          1701.0244      293.32263      7988.4678      2943.8996      10932.367      57950.84       87120        
     87600   87500          1702.9652      291.88266      7978.7713      2929.4475      10908.219      57943.621      87120        
     87700   87600          1704.5984      298.56986      7991.9001      2996.5628      10988.463      58007.509      87120        
     87800   87700          1706.1111      304.86593      7967.1971      3059.7526      11026.95       57968.409      87120        
     87900   87800          1707.8333      303.12599      7938.5923      3042.2898      10980.882      57894.887      87120        
     88000   87900          1709.766       296.58697      7966.4909      2976.6617      10943.153      58019.067      87120        
     88100   88000          1711.6627      296.83996      8002.1555      2979.2008      10981.356      58070.202      87120        
     88200   88100          1713.5716      301.89827      7969.6576      3029.968       10999.626      57989.872      87120        
     88300   88200          1715.481       301.97379      7952.6813      3030.7259      10983.407      57962.055      87120        
     88400   88300          1717.0834      298.55955      7953.0031      2996.4593      10949.462      57926.803      87120        
     88500   88400          1718.5854      294.12913      7977.8963      2951.9939      10929.89       57992.048      87120        
     88600   88500          1720.2414      300.69468      7990.1988      3017.8884      11008.087      58019.232      87120        
     88700   88600          1722.1674      307.74358      7965.8519      3088.6338      11054.486      57964.836      87120        
     88800   88700          1724.0906      298.27964      7988.2565      2993.65        10981.907      58057.891      87120        
     88900   88800          1726.0104      297.34538      7949.5302      2984.2734      10933.804      57939.806      87120        
     89000   88900          1727.932       298.50882      7952.1844      2995.9502      10948.135      57921.664      87120        
     89100   89000          1729.579       298.4549       7975.692       2995.409       10971.101      57935.362      87120        
     89200   89100          1731.0758      298.73159      7981.9397      2998.186       10980.126      57932.663      87120        
     89300   89200          1732.582       301.52188      7972.8004      3026.1904      10998.991      57901.611      87120        
     89400   89300          1734.3737      303.86113      7963.0073      3049.668       11012.675      57901.923      87120        
     89500   89400          1736.2937      294.18434      7996.5901      2952.548       10949.138      58036.543      87120        
     89600   89500          1738.2232      290.43758      7977.4663      2914.944       10892.41       57966.303      87120        
     89700   89600          1740.1544      299.03039      7989.6217      3001.1848      10990.807      58025.844      87120        
     89800   89700          1742.0398      297.26614      8024.9549      2983.4782      11008.433      58129.894      87120        
     89900   89800          1743.8316      299.59144      8016.1578      3006.8158      11022.974      58062.013      87120        
     90000   89900          1745.317       300.9259       7995.0299      3020.2089      11015.239      57988.621      87120        
     90100   90000          1746.8577      295.33542      7988.5411      2964.1007      10952.642      57957.564      87120        
     90200   90100          1748.7888      295.48673      7999.3966      2965.6193      10965.016      57979.338      87120        
     90300   90200          1750.6609      308.9613       7972.7041      3100.8554      11073.559      57896.159      87120        
     90400   90300          1752.5863      301.15656      8001.4264      3022.5239      11023.95       58064.649      87120        
     90500   90400          1754.5099      296.80738      7998.8382      2978.8739      10977.712      58042.1        87120        
     90600   90500          1756.3241      298.01898      8000.8492      2991.0339      10991.883      58071.353      87120        
     90700   90600          1757.833       301.18319      8012.8494      3022.7912      11035.641      58106.668      87120        
     90800   90700          1759.3854      308.93721      8032.3449      3100.6136      11132.958      58160.151      87120        
     90900   90800          1761.3084      309.8486       8018.1095      3109.7606      11127.87       58097.532      87120        
     91000   90900          1763.2458      301.72221      7996.2616      3028.201       11024.463      58018.377      87120        
     91100   91000          1765.1554      299.12857      7994.9572      3002.1702      10997.127      58020.951      87120        
     91200   91100          1767.0752      297.27314      7990.0696      2983.5484      10973.618      57984.543      87120        
     91300   91200          1768.848       297.44248      7991.9571      2985.248       10977.205      58011.993      87120        
     91400   91300          1770.3539      306.20383      7989.1468      3073.1803      11062.327      58024.603      87120        
     91500   91400          1771.8852      306.09279      7974.4093      3072.0658      11046.475      57975.597      87120        
     91600   91500          1773.8239      294.11522      8002.2602      2951.8543      10954.115      58025.066      87120        
     91700   91600          1775.7688      298.72831      7977.5841      2998.1531      10975.737      57958.368      87120        
     91800   91700          1777.7115      303.29071      7987.4454      3043.9431      11031.388      57982.008      87120        
     91900   91800          1779.6053      304.24712      8008.8013      3053.542       11062.343      58057.051      87120        
     92000   91900          1781.4336      301.37633      7976.7957      3024.7296      11001.525      57921.761      87120        
     92100   92000          1782.9255      293.5505       7980.7388      2946.1865      10926.925      57949.181      87120        
     92200   92100          1784.4131      298.82599      7985.3631      2999.1334      10984.497      57976.404      87120        
     92300   92200          1786.3272      306.377        7953.6746      3074.9183      11028.593      57855.383      87120        
     92400   92300          1788.2091      300.5958       7973.7847      3016.8959      10990.681      57952.973      87120        
     92500   92400          1790.1345      298.14163      7967.2136      2992.265       10959.479      57914.883      87120        
     92600   92500          1792.0608      296.2949       7991.9524      2973.7304      10965.683      57947.543      87120        
     92700   92600          1793.8676      309.14289      7975.7881      3102.6779      11078.466      57939.327      87120        
     92800   92700          1795.3745      303.24176      8010.9692      3043.4518      11054.421      58070.85       87120        
     92900   92800          1796.9047      300.48405      7968.7994      3015.7744      10984.574      57878.359      87120        
     93000   92900          1798.8125      296.15932      7993.2276      2972.3696      10965.597      57952.667      87120        
     93100   93000          1800.667       301.63712      7989.9984      3027.347       11017.345      57976.028      87120        
     93200   93100          1802.6208      311.6035       7996.2652      3127.3735      11123.639      58072.091      87120        
     93300   93200          1804.5364      305.51518      7990.3444      3066.2687      11056.613      58040.491      87120        
     93400   93300          1806.4529      302.56271      7955.3856      3036.6366      10992.022      57853.448      87120        
     93500   93400          1808.1222      296.77982      7974.2698      2978.5973      10952.867      57913.52       87120        
     93600   93500          1809.638       300.07377      7970.7343      3011.6566      10982.391      57854.021      87120        
     93700   93600          1811.3141      300.64612      7990.6478      3017.401       11008.049      57909.91       87120        
     93800   93700          1813.2862      303.081        7960.3189      3041.8383      11002.157      57847.553      87120        
     93900   93800          1815.2152      295.44286      7991.079       2965.179       10956.258      57994.472      87120        
     94000   93900          1817.1885      296.02522      8007.4205      2971.0238      10978.444      58040.496      87120        
     94100   94000          1819.131       304.49963      8010.831       3056.0763      11066.907      58113.47       87120        
     94200   94100          1820.7962      302.69599      8014.1164      3037.9742      11052.091      58123.709      87120        
     94300   94200          1822.3246      299.98491      7964.9618      3010.7647      10975.727      57878.8        87120        
     94400   94300          1824.0661      301.62238      7935.0252      3027.1991      10962.224      57734.692      87120        
     94500   94400          1825.9829      299.04363      7966.2041      3001.3177      10967.522      57802.817      87120        
     94600   94500          1827.9022      298.78986      8003.7361      2998.7708      11002.507      57917.471      87120        
     94700   94600          1829.8629      307.30548      7991.2024      3084.2369      11075.439      57907.505      87120        
     94800   94700          1831.7839      308.75376      7972.8958      3098.7723      11071.668      57879.82       87120        
     94900   94800          1833.6351      296.05189      7979.5305      2971.2915      10950.822      57917.673      87120        
     95000   94900          1835.1694      297.98631      7968.6105      2990.7061      10959.317      57852.476      87120        
     95100   95000          1836.6575      303.80722      7970.3069      3049.1269      11019.434      57869.861      87120        
     95200   95100          1838.5706      304.89548      7978.0446      3060.0491      11038.094      57896.236      87120        
     95300   95200          1840.4688      296.00311      7987.3093      2970.8019      10958.111      57903.049      87120        
     95400   95300          1842.3697      292.16313      7958.0717      2932.2623      10890.334      57709.168      87120        
     95500   95400          1844.2806      295.76867      7976.8868      2968.449       10945.336      57772.931      87120        
     95600   95500          1846.1461      300.61002      7980.7246      3017.0386      10997.763      57869.694      87120        
     95700   95600          1847.6336      299.07121      7996.5255      3001.5945      10998.12       57976.346      87120        
     95800   95700          1849.135       296.68752      7983.3475      2977.6709      10961.018      57927.56       87120        
     95900   95800          1851.0085      292.33603      7982.9943      2933.9977      10916.992      57923.265      87120        
     96000   95900          1852.9331      299.40561      7982.694       3004.9507      10987.645      57933.874      87120        
     96100   96000          1854.8564      303.9366       8000.544       3050.4255      11050.97       57979.262      87120        
     96200   96100          1856.7138      302.46988      7956.71        3035.7049      10992.415      57771.313      87120        
     96300   96200          1858.5708      296.71307      7960.7935      2977.9274      10938.721      57749.905      87120        
     96400   96300          1860.248       299.40709      7953.3879      3004.9655      10958.353      57741.385      87120        
     96500   96400          1861.718       298.11315      8012.3017      2991.979       11004.281      57980.846      87120        
     96600   96500          1863.2748      305.5987       7976.2443      3067.1069      11043.351      57904.951      87120        
     96700   96600          1865.1507      301.40071      7987.8346      3024.9743      11012.809      57971.27       87120        
     96800   96700          1867.0302      298.54375      7984.7454      2996.3007      10981.046      57938.295      87120        
     96900   96800          1868.903       297.36193      8018.8592      2984.4395      11003.299      57963.875      87120        
     97000   96900          1870.736       308.48351      7980.1929      3096.06        11076.253      57833.362      87120        
     97100   97000          1872.5654      302.21137      7964.1658      3033.1104      10997.276      57745.755      87120        
     97200   97100          1874.1581      295.79299      7983.4429      2968.693       10952.136      57814.332      87120        
     97300   97200          1875.6227      299.75627      7964.7114      3008.4701      10973.181      57811.433      87120        
     97400   97300          1877.2449      302.76032      7965.3559      3038.6199      11003.976      57844.374      87120        
     97500   97400          1879.1184      306.2425       7964.9733      3073.5684      11038.542      57871.096      87120        
     97600   97500          1880.9896      304.85274      7976.9165      3059.6202      11036.537      57934.409      87120        
     97700   97600          1882.8495      294.7667       7988.5925      2958.3928      10946.985      57866.683      87120        
     97800   97700          1884.7141      292.90033      8005.8442      2939.6612      10945.505      57869.361      87120        
     97900   97800          1886.5749      306.81708      7949.5133      3079.3351      11028.848      57694.489      87120        
     98000   97900          1888.1007      306.8261       7936.3051      3079.4256      11015.731      57645.799      87120        
     98100   98000          1889.5601      298.00426      7978.841       2990.8862      10969.727      57817.051      87120        
     98200   98100          1891.2796      298.77877      7943.5753      2998.6595      10942.235      57730.302      87120        
     98300   98200          1893.1598      300.03755      7937.9776      3011.2931      10949.271      57775.225      87120        
     98400   98300          1895.0397      306.3259       7985.5973      3074.4054      11060.003      57925.206      87120        
     98500   98400          1896.9226      309.3505       7965.3024      3104.7615      11070.064      57778.672      87120        
     98600   98500          1898.8116      298.70645      7996.0161      2997.9336      10993.95       57825.484      87120        
     98700   98600          1900.4473      298.39718      7992.1715      2994.8297      10987.001      57814.07       87120        
     98800   98700          1901.9292      300.50507      7968.0555      3015.9853      10984.041      57766.57       87120        
     98900   98800          1903.4198      300.84589      7943.7702      3019.4059      10963.176      57749.753      87120        
     99000   98900          1905.2444      297.10837      7997.2276      2981.8947      10979.122      57999.062      87120        
     99100   99000          1907.1285      307.79346      7961.0045      3089.1344      11050.139      57868.05       87120        
     99200   99100          1909.061       301.27153      7980.6042      3023.6778      11004.282      57904.165      87120        
     99300   99200          1910.9598      296.41803      7958.5946      2974.9662      10933.561      57790.483      87120        
     99400   99300          1912.8521      295.50558      7992.1978      2965.8085      10958.006      57875.927      87120        
     99500   99400          1914.5924      301.07357      7988.9446      3021.691       11010.636      57855.319      87120        
     99600   99500          1916.12        301.27541      7982.8306      3023.7167      11006.547      57829.082      87120        
     99700   99600          1917.684       300.23933      7960.1482      3013.3182      10973.466      57753.191      87120        
     99800   99700          1919.6001      291.54184      7996.199       2926.0269      10922.226      57888.665      87120        
     99900   99800          1921.5137      304.11051      7946.2391      3052.1709      10998.41       57770.947      87120        
    100000   99900          1923.4233      311.41031      7939.9922      3125.4346      11065.427      57789.784      87120        
    100100   100000         1925.2938      299.07195      7986.8745      3001.602       10988.477      57941.283      87120        
Loop time of 1925.29 on 1 procs for 100000 steps with 4363 atoms

Performance: 4.488 ns/day, 5.348 hours/ns, 51.940 timesteps/s, 226.615 katom-step/s
99.8% CPU use with 1 MPI tasks x no OpenMP threads

MPI task timing breakdown:
Section |  min time  |  avg time  |  max time  |%varavg| %total
---------------------------------------------------------------
Pair    | 1535       | 1535       | 1535       |   0.0 | 79.73
Bond    | 28.413     | 28.413     | 28.413     |   0.0 |  1.48
Neigh   | 305.45     | 305.45     | 305.45     |   0.0 | 15.87
Comm    | 10.78      | 10.78      | 10.78      |   0.0 |  0.56
Output  | 1.1413     | 1.1413     | 1.1413     |   0.0 |  0.06
Modify  | 41.053     | 41.053     | 41.053     |   0.0 |  2.13
Other   |            | 3.468      |            |       |  0.18

Nlocal:           4363 ave        4363 max        4363 min
Histogram: 1 0 0 0 0 0 0 0 0 0
Nghost:          11770 ave       11770 max       11770 min
Histogram: 1 0 0 0 0 0 0 0 0 0
Neighs:    1.01323e+06 ave 1.01323e+06 max 1.01323e+06 min
Histogram: 1 0 0 0 0 0 0 0 0 0

Total # of neighbors = 1013230
Ave neighs/atom = 232.23241
Ave special neighs/atom = 6.3176713
Neighbor list builds = 7265
Dangerous builds = 0
unfix                  mynvt


write_data             equilb_300ps.data
System init for write_data ...
Generated 21 of 21 mixed pair_coeff terms from arithmetic mixing rule
WARNING: Dihedrals are defined but no dihedral style is set (../force.cpp:207)
WARNING: Likewise 1-4 special neighbor interactions != 1.0 (../force.cpp:209)
WARNING: Impropers are defined but no improper style is set (../force.cpp:212)












Total wall time: 0:32:08
