
     Program PWSCF v.7.3.1 starts on  4Nov2024 at 22: 2:59 

     This program is part of the open-source Quantum ESPRESSO suite
     for quantum simulation of materials; please cite
         "P. Giannozzi et al., J. Phys.:Condens. Matter 21 395502 (2009);
         "P. Giannozzi et al., J. Phys.:Condens. Matter 29 465901 (2017);
         "P. Giannozzi et al., J. Chem. Phys. 152 154105 (2020);
          URL http://www.quantum-espresso.org", 
     in publications or presentations arising from this work. More details at
     http://www.quantum-espresso.org/quote

     Parallel version (MPI), running on     1 processors

     MPI processes distributed on     1 nodes
     11797 MiB available memory on the printing compute node when the environment starts

     Waiting for input...
     Reading input from standard input

     Current dimensions of program PWSCF are:
     Max number of different atomic species (ntypx) = 10
     Max number of k-points (npk) =  40000
     Max angular momentum in pseudopotentials (lmaxx) =  4

     Subspace diagonalization in iterative solution of the eigenvalue problem:
     a serial algorithm will be used


     G-vector sticks info
     --------------------
     sticks:   dense  smooth     PW     G-vecs:    dense   smooth      PW
     Sum         163     163     61                 1459     1459     331

     Using Slab Decomposition



     bravais-lattice index     =            2
     lattice parameter (alat)  =       7.9400  a.u.
     unit-cell volume          =     125.1415 (a.u.)^3
     number of atoms/cell      =            1
     number of atomic types    =            1
     number of electrons       =        10.00
     number of Kohn-Sham states=           10
     kinetic-energy cutoff     =      20.0000  Ry
     charge density cutoff     =      80.0000  Ry
     scf convergence threshold =      1.0E-08
     mixing beta               =       0.7000
     number of iterations used =            8  plain     mixing
     Exchange-correlation=  SLA  PZ   NOGX NOGC
                           (   1   1   0   0   0   0   0)
     Non magnetic calculation with spin-orbit


     celldm(1)=   7.940000  celldm(2)=   0.000000  celldm(3)=   0.000000
     celldm(4)=   0.000000  celldm(5)=   0.000000  celldm(6)=   0.000000

     crystal axes: (cart. coord. in units of alat)
               a(1) = (  -0.500000   0.000000   0.500000 )  
               a(2) = (   0.000000   0.500000   0.500000 )  
               a(3) = (  -0.500000   0.500000   0.000000 )  

     reciprocal axes: (cart. coord. in units 2 pi/alat)
               b(1) = ( -1.000000 -1.000000  1.000000 )  
               b(2) = (  1.000000  1.000000  1.000000 )  
               b(3) = ( -1.000000  1.000000 -1.000000 )  


     PseudoPot. # 1 for Pt read from file:
     /home/dashlander/Desktop/Sem7/CPD/Assignment_3/pseudo/Pt.rel-pz-n-rrkjus.UPF
     MD5 check sum: 4baafe8ec1942611396c7a5466f52249
     Pseudo is Ultrasoft + core correction, Zval = 10.0
     Generated by new atomic code, or converted to UPF format
     Using radial grid of 1277 points,  6 beta functions with: 
                l(1) =   2
                l(2) =   2
                l(3) =   2
                l(4) =   2
                l(5) =   1
                l(6) =   1
     Q(r) pseudized with 0 coefficients 


     atomic species   valence    mass     pseudopotential
     Pt               10.00   195.08400     Pt( 1.00)

     48 Sym. Ops., with inversion, found



   Cartesian axes

     site n.     atom                  positions (alat units)
         1        Pt     tau(   1) = (   0.0000000   0.0000000   0.0000000  )

     number of k points=    35
                       cart. coord. in units 2pi/alat
        k(    1) = (   0.0000000   0.0000000   0.0000000), wk =   0.0013717
        k(    2) = (  -0.1111111   0.1111111  -0.1111111), wk =   0.0109739
        k(    3) = (  -0.2222222   0.2222222  -0.2222222), wk =   0.0109739
        k(    4) = (  -0.3333333   0.3333333  -0.3333333), wk =   0.0109739
        k(    5) = (  -0.4444444   0.4444444  -0.4444444), wk =   0.0109739
        k(    6) = (   0.0000000   0.2222222   0.0000000), wk =   0.0082305
        k(    7) = (  -0.1111111   0.3333333  -0.1111111), wk =   0.0329218
        k(    8) = (  -0.2222222   0.4444444  -0.2222222), wk =   0.0329218
        k(    9) = (  -0.3333333   0.5555556  -0.3333333), wk =   0.0329218
        k(   10) = (   0.5555556  -0.3333333   0.5555556), wk =   0.0329218
        k(   11) = (   0.4444444  -0.2222222   0.4444444), wk =   0.0329218
        k(   12) = (   0.3333333  -0.1111111   0.3333333), wk =   0.0329218
        k(   13) = (   0.2222222  -0.0000000   0.2222222), wk =   0.0164609
        k(   14) = (   0.0000000   0.4444444   0.0000000), wk =   0.0082305
        k(   15) = (  -0.1111111   0.5555556  -0.1111111), wk =   0.0329218
        k(   16) = (  -0.2222222   0.6666667  -0.2222222), wk =   0.0329218
        k(   17) = (   0.6666667  -0.2222222   0.6666667), wk =   0.0329218
        k(   18) = (   0.5555556  -0.1111111   0.5555556), wk =   0.0329218
        k(   19) = (   0.4444444   0.0000000   0.4444444), wk =   0.0164609
        k(   20) = (   0.0000000   0.6666667   0.0000000), wk =   0.0082305
        k(   21) = (  -0.1111111   0.7777778  -0.1111111), wk =   0.0329218
        k(   22) = (   0.7777778  -0.1111111   0.7777778), wk =   0.0329218
        k(   23) = (   0.6666667  -0.0000000   0.6666667), wk =   0.0164609
        k(   24) = (   0.0000000   0.8888889   0.0000000), wk =   0.0082305
        k(   25) = (   0.8888889   0.0000000   0.8888889), wk =   0.0164609
        k(   26) = (  -0.2222222   0.4444444   0.0000000), wk =   0.0329218
        k(   27) = (  -0.3333333   0.5555556  -0.1111111), wk =   0.0658436
        k(   28) = (   0.5555556  -0.3333333   0.7777778), wk =   0.0658436
        k(   29) = (  -0.2222222   0.6666667   0.0000000), wk =   0.0329218
        k(   30) = (   0.6666667  -0.2222222   0.8888889), wk =   0.0658436
        k(   31) = (   0.5555556  -0.1111111   0.7777778), wk =   0.0658436
        k(   32) = (   0.4444444   0.0000000   0.6666667), wk =   0.0329218
        k(   33) = (   0.7777778  -0.1111111   1.0000000), wk =   0.0329218
        k(   34) = (   0.6666667  -0.0000000   0.8888889), wk =   0.0329218
        k(   35) = (   0.5555556  -0.1111111   1.0000000), wk =   0.0329218

     Dense  grid:     1459 G-vectors     FFT dimensions: (  15,  15,  15)

     Estimated max dynamical RAM per process >      13.98 MB

     Check: negative core charge=   -0.000067

     Initial potential from superposition of free atoms

     starting charge       9.9999, renormalised to      10.0000

     negative rho (up, down):  2.987E-04 0.000E+00
     Starting wfcs are   12 randomized atomic wfcs

     total cpu time spent up to now is        0.4 secs

     Self-consistent Calculation

     iteration #  1     ecut=    20.00 Ry     beta= 0.70
     Davidson diagonalization with overlap
     ethr =  1.00E-02,  avg # of iterations =  2.0

     Threshold (ethr) on eigenvalues was too large:
     Diagonalizing with lowered threshold

     Davidson diagonalization with overlap
     ethr =  5.54E-05,  avg # of iterations =  5.8

     negative rho (up, down):  3.764E-04 0.000E+00

     total cpu time spent up to now is        0.9 secs

     total energy              =     -69.43189307 Ry
     estimated scf accuracy    <       0.00143846 Ry

     iteration #  2     ecut=    20.00 Ry     beta= 0.70
     Davidson diagonalization with overlap
     ethr =  1.44E-05,  avg # of iterations =  2.2

     negative rho (up, down):  3.998E-04 0.000E+00

     total cpu time spent up to now is        1.1 secs

     total energy              =     -69.43216727 Ry
     estimated scf accuracy    <       0.00012888 Ry

     iteration #  3     ecut=    20.00 Ry     beta= 0.70
     Davidson diagonalization with overlap
     ethr =  1.29E-06,  avg # of iterations =  3.4

     negative rho (up, down):  4.130E-04 0.000E+00

     total cpu time spent up to now is        1.4 secs

     total energy              =     -69.43222015 Ry
     estimated scf accuracy    <       0.00000915 Ry

     iteration #  4     ecut=    20.00 Ry     beta= 0.70
     Davidson diagonalization with overlap
     ethr =  9.15E-08,  avg # of iterations =  5.1

     negative rho (up, down):  4.128E-04 0.000E+00

     total cpu time spent up to now is        1.6 secs

     total energy              =     -69.43222550 Ry
     estimated scf accuracy    <       0.00000003 Ry

     iteration #  5     ecut=    20.00 Ry     beta= 0.70
     Davidson diagonalization with overlap
     c_bands:  1 eigenvalues not converged
     c_bands:  2 eigenvalues not converged
     ethr =  3.32E-10,  avg # of iterations = 10.9

     negative rho (up, down):  4.129E-04 0.000E+00

     total cpu time spent up to now is        2.1 secs

     End of self-consistent calculation

          k = 0.0000 0.0000 0.0000 (   169 PWs)   bands (ev):

     4.6657   4.6657   9.6930   9.6930   9.6930   9.6930  10.7315  10.7315
    11.9453  11.9453

          k =-0.1111 0.1111-0.1111 (   172 PWs)   bands (ev):

     5.0655   5.0655   9.6793   9.6793   9.7566   9.7566  10.8086  10.8086
    11.8223  11.8223

          k =-0.2222 0.2222-0.2222 (   181 PWs)   bands (ev):

     6.1162   6.1162   9.6669   9.6669   9.8070   9.8070  11.0192  11.0192
    11.7150  11.7150

          k =-0.3333 0.3333-0.3333 (   183 PWs)   bands (ev):

     7.1086   7.1086   9.7060   9.7060  10.3686  10.3686  10.8616  10.8616
    12.2295  12.2295

          k =-0.4444 0.4444-0.4444 (   183 PWs)   bands (ev):

     7.3681   7.3681   9.5864   9.5864  10.6198  10.6198  12.2598  12.2598
    12.8024  12.8024

          k = 0.0000 0.2222 0.0000 (   173 PWs)   bands (ev):

     5.2005   5.2005   9.5713   9.5713   9.8660   9.8660  10.8508  10.8508
    11.7126  11.7126

          k =-0.1111 0.3333-0.1111 (   180 PWs)   bands (ev):

     6.0552   6.0552   9.4136   9.4136   9.9658   9.9658  11.1023  11.1023
    11.5714  11.5714

          k =-0.2222 0.4444-0.2222 (   190 PWs)   bands (ev):

     7.1780   7.1780   9.5464   9.5464   9.8770   9.8770  11.0175  11.0175
    12.1397  12.1397

          k =-0.3333 0.5556-0.3333 (   188 PWs)   bands (ev):

     7.6350   7.6350   9.6035   9.6035  10.5382  10.5382  11.0072  11.0072
    12.9025  12.9025

          k = 0.5556-0.3333 0.5556 (   187 PWs)   bands (ev):

     7.6794   7.6794   9.5532   9.5532  10.6013  10.6013  11.5214  11.5214
    12.8834  12.8834

          k = 0.4444-0.2222 0.4444 (   189 PWs)   bands (ev):

     7.5896   7.5896   9.6456   9.6456  10.4429  10.4429  10.8272  10.8272
    12.3012  12.3012

          k = 0.3333-0.1111 0.3333 (   190 PWs)   bands (ev):

     6.8446   6.8446   9.5049   9.5049   9.8981   9.8981  11.0779  11.0779
    11.6201  11.6201

          k = 0.2222-0.0000 0.2222 (   178 PWs)   bands (ev):

     5.6982   5.6982   9.5550   9.5550   9.8737   9.8737  10.9827  10.9827
    11.5966  11.5966

          k = 0.0000 0.4444 0.0000 (   182 PWs)   bands (ev):

     6.6192   6.6192   9.0809   9.0809  10.1683  10.1683  11.4139  11.4139
    11.5356  11.5356

          k =-0.1111 0.5556-0.1111 (   186 PWs)   bands (ev):

     7.5378   7.5378   8.8791   8.8791  10.1304  10.1304  11.5613  11.5613
    12.1512  12.1512

          k =-0.2222 0.6667-0.2222 (   191 PWs)   bands (ev):

     8.1095   8.1095   9.1532   9.1532  10.0438  10.0438  11.4058  11.4058
    12.9783  12.9783

          k = 0.6667-0.2222 0.6667 (   182 PWs)   bands (ev):

     8.2822   8.2822   9.3281   9.3281  10.3507  10.3507  11.2578  11.2578
    12.9324  12.9324

          k = 0.5556-0.1111 0.5556 (   190 PWs)   bands (ev):

     8.4222   8.4222   9.4149   9.4149  10.1405  10.1405  11.0812  11.0812
    12.3435  12.3435

          k = 0.4444 0.0000 0.4444 (   192 PWs)   bands (ev):

     7.9822   7.9822   9.3354   9.3354   9.8417   9.8417  11.1161  11.1161
    11.7101  11.7101

          k = 0.0000 0.6667 0.0000 (   194 PWs)   bands (ev):

     7.7560   7.7560   8.4808   8.4808  11.0491  11.0491  12.1999  12.1999
    12.2938  12.2938

          k =-0.1111 0.7778-0.1111 (   195 PWs)   bands (ev):

     7.9642   7.9642   8.3981   8.3981  11.2875  11.2875  12.2814  12.2814
    13.0845  13.0845

          k = 0.7778-0.1111 0.7778 (   188 PWs)   bands (ev):

     8.2154   8.2154   8.7489   8.7489  10.8936  10.8936  12.0011  12.0011
    13.1096  13.1096

          k = 0.6667-0.0000 0.6667 (   186 PWs)   bands (ev):

     8.5592   8.5592   9.2228   9.2228  10.2716  10.2716  11.5784  11.5784
    12.6625  12.6625

          k = 0.0000 0.8889 0.0000 (   194 PWs)   bands (ev):

     7.7185   7.7185   8.1054   8.1054  12.6446  12.6446  12.7356  12.7356
    13.7217  13.7217

          k = 0.8889 0.0000 0.8889 (   192 PWs)   bands (ev):

     7.8505   7.8505   8.2094   8.2094  12.1479  12.1479  12.5873  12.5873
    13.4654  13.4654

          k =-0.2222 0.4444 0.0000 (   186 PWs)   bands (ev):

     7.0200   7.0200   9.1949   9.1949   9.9595   9.9595  11.4070  11.4070
    11.5156  11.5156

          k =-0.3333 0.5556-0.1111 (   188 PWs)   bands (ev):

     7.9941   7.9941   9.3593   9.3593   9.7538   9.7538  11.2433  11.2433
    12.2075  12.2075

          k = 0.5556-0.3333 0.7778 (   190 PWs)   bands (ev):

     8.1879   8.1879   9.4050   9.4050  10.3148  10.3148  11.1512  11.1512
    12.7976  12.7976

          k =-0.2222 0.6667 0.0000 (   187 PWs)   bands (ev):

     8.1499   8.1499   8.7066   8.7066  10.1994  10.1994  12.1101  12.1101
    12.3228  12.3228

          k = 0.6667-0.2222 0.8889 (   193 PWs)   bands (ev):

     8.4732   8.4732   8.9622   8.9622  10.1054  10.1054  11.8671  11.8671
    12.9115  12.9115

          k = 0.5556-0.1111 0.7778 (   190 PWs)   bands (ev):

     8.7301   8.7301   9.1447   9.1447  10.0187  10.0187  11.5728  11.5728
    12.8505  12.8505

          k = 0.4444 0.0000 0.6667 (   192 PWs)   bands (ev):

     8.8785   8.8785   9.1874   9.1874   9.5555   9.5555  11.5601  11.5601
    12.3662  12.3662

          k = 0.7778-0.1111 1.0000 (   198 PWs)   bands (ev):

     8.0766   8.0766   8.3882   8.3882  11.3252  11.3252  12.4594  12.4594
    13.2770  13.2770

          k = 0.6667-0.0000 0.8889 (   195 PWs)   bands (ev):

     8.3919   8.3919   8.7899   8.7899  10.6615  10.6615  11.9955  11.9955
    13.2199  13.2199

          k = 0.5556-0.1111 1.0000 (   194 PWs)   bands (ev):

     8.7377   8.7377   9.1851   9.1851   9.8421   9.8421  11.7554  11.7554
    13.1785  13.1785

     highest occupied level (ev):    13.7217

!    total energy              =     -69.43222582 Ry
     estimated scf accuracy    <          4.5E-09 Ry

     The total energy is the sum of the following terms:
     one-electron contribution =      11.62061465 Ry
     hartree contribution      =       5.04047260 Ry
     xc contribution           =     -28.34945819 Ry
     ewald contribution        =     -57.74385488 Ry

     convergence has been achieved in   5 iterations

     negative rho (up, down):  4.129E-04 0.000E+00

     Forces acting on atoms (cartesian axes, Ry/au):

     atom    1 type  1   force =     0.00000000    0.00000000    0.00000000

     Total force =     0.000000     Total SCF correction =     0.000000


     Computing stress (Cartesian axis) and pressure


     negative rho (up, down):  4.129E-04 0.000E+00
          total   stress  (Ry/bohr**3)                   (kbar)     P=     -301.92
  -0.00205242   0.00000000   0.00000000         -301.92        0.00        0.00
   0.00000000  -0.00205242   0.00000000            0.00     -301.92        0.00
   0.00000000   0.00000000  -0.00205242            0.00        0.00     -301.92


     Writing all to output data dir ./platinum.save/ :
     XML data file, charge density, pseudopotentials, collected wavefunctions

     init_run     :      0.25s CPU      0.28s WALL (       1 calls)
     electrons    :      1.57s CPU      1.74s WALL (       1 calls)
     forces       :      0.04s CPU      0.04s WALL (       1 calls)
     stress       :      0.19s CPU      0.19s WALL (       1 calls)

     Called by init_run:
     wfcinit      :      0.06s CPU      0.08s WALL (       1 calls)
     potinit      :      0.01s CPU      0.01s WALL (       1 calls)
     hinit0       :      0.17s CPU      0.17s WALL (       1 calls)

     Called by electrons:
     c_bands      :      1.29s CPU      1.44s WALL (       6 calls)
     sum_band     :      0.22s CPU      0.24s WALL (       6 calls)
     v_of_rho     :      0.00s CPU      0.00s WALL (       6 calls)
     newd         :      0.07s CPU      0.08s WALL (       6 calls)
     mix_rho      :      0.00s CPU      0.00s WALL (       6 calls)

     Called by c_bands:
     init_us_2    :      0.02s CPU      0.02s WALL (     525 calls)
     cegterg      :      1.21s CPU      1.36s WALL (     210 calls)

     Called by *egterg:
     cdiaghg      :      0.08s CPU      0.09s WALL (    1204 calls)
     h_psi        :      0.68s CPU      0.77s WALL (    1274 calls)
     s_psi        :      0.12s CPU      0.13s WALL (    1274 calls)
     g_psi        :      0.01s CPU      0.01s WALL (    1029 calls)

     Called by h_psi:
     h_psi:calbec :      0.10s CPU      0.11s WALL (    1274 calls)
     vloc_psi     :      0.46s CPU      0.52s WALL (    1274 calls)
     add_vuspsi   :      0.12s CPU      0.13s WALL (    1274 calls)

     General routines
     calbec       :      0.14s CPU      0.15s WALL (    1659 calls)
     fft          :      0.03s CPU      0.03s WALL (      69 calls)
     ffts         :      0.00s CPU      0.00s WALL (      24 calls)
     fftw         :      0.34s CPU      0.38s WALL (   38808 calls)

     Parallel routines

     PWSCF        :      2.15s CPU      2.35s WALL


   This run was terminated on:  22: 3: 1   4Nov2024            

=------------------------------------------------------------------------------=
   JOB DONE.
=------------------------------------------------------------------------------=
