
     Program PWSCF v.7.3.1 starts on  4Nov2024 at 22: 1: 4 

     This program is part of the open-source Quantum ESPRESSO suite
     for quantum simulation of materials; please cite
         "P. Giannozzi et al., J. Phys.:Condens. Matter 21 395502 (2009);
         "P. Giannozzi et al., J. Phys.:Condens. Matter 29 465901 (2017);
         "P. Giannozzi et al., J. Chem. Phys. 152 154105 (2020);
          URL http://www.quantum-espresso.org", 
     in publications or presentations arising from this work. More details at
     http://www.quantum-espresso.org/quote

     Parallel version (MPI), running on     1 processors

     MPI processes distributed on     1 nodes
     11859 MiB available memory on the printing compute node when the environment starts

     Waiting for input...
     Reading input from standard input

     Current dimensions of program PWSCF are:
     Max number of different atomic species (ntypx) = 10
     Max number of k-points (npk) =  40000
     Max angular momentum in pseudopotentials (lmaxx) =  4

     Subspace diagonalization in iterative solution of the eigenvalue problem:
     a serial algorithm will be used


     G-vector sticks info
     --------------------
     sticks:   dense  smooth     PW     G-vecs:    dense   smooth      PW
     Sum         151     151     55                 1243     1243     283

     Using Slab Decomposition



     bravais-lattice index     =            2
     lattice parameter (alat)  =       7.4200  a.u.
     unit-cell volume          =     102.1296 (a.u.)^3
     number of atoms/cell      =            1
     number of atomic types    =            1
     number of electrons       =        10.00
     number of Kohn-Sham states=           10
     kinetic-energy cutoff     =      20.0000  Ry
     charge density cutoff     =      80.0000  Ry
     scf convergence threshold =      1.0E-08
     mixing beta               =       0.7000
     number of iterations used =            8  plain     mixing
     Exchange-correlation=  SLA  PZ   NOGX NOGC
                           (   1   1   0   0   0   0   0)
     Non magnetic calculation with spin-orbit


     celldm(1)=   7.420000  celldm(2)=   0.000000  celldm(3)=   0.000000
     celldm(4)=   0.000000  celldm(5)=   0.000000  celldm(6)=   0.000000

     crystal axes: (cart. coord. in units of alat)
               a(1) = (  -0.500000   0.000000   0.500000 )  
               a(2) = (   0.000000   0.500000   0.500000 )  
               a(3) = (  -0.500000   0.500000   0.000000 )  

     reciprocal axes: (cart. coord. in units 2 pi/alat)
               b(1) = ( -1.000000 -1.000000  1.000000 )  
               b(2) = (  1.000000  1.000000  1.000000 )  
               b(3) = ( -1.000000  1.000000 -1.000000 )  


     PseudoPot. # 1 for Pt read from file:
     /home/dashlander/Desktop/Sem7/CPD/Assignment_3/pseudo/Pt.rel-pz-n-rrkjus.UPF
     MD5 check sum: 4baafe8ec1942611396c7a5466f52249
     Pseudo is Ultrasoft + core correction, Zval = 10.0
     Generated by new atomic code, or converted to UPF format
     Using radial grid of 1277 points,  6 beta functions with: 
                l(1) =   2
                l(2) =   2
                l(3) =   2
                l(4) =   2
                l(5) =   1
                l(6) =   1
     Q(r) pseudized with 0 coefficients 


     atomic species   valence    mass     pseudopotential
     Pt               10.00   195.08400     Pt( 1.00)

     48 Sym. Ops., with inversion, found



   Cartesian axes

     site n.     atom                  positions (alat units)
         1        Pt     tau(   1) = (   0.0000000   0.0000000   0.0000000  )

     number of k points=    35
                       cart. coord. in units 2pi/alat
        k(    1) = (   0.0000000   0.0000000   0.0000000), wk =   0.0013717
        k(    2) = (  -0.1111111   0.1111111  -0.1111111), wk =   0.0109739
        k(    3) = (  -0.2222222   0.2222222  -0.2222222), wk =   0.0109739
        k(    4) = (  -0.3333333   0.3333333  -0.3333333), wk =   0.0109739
        k(    5) = (  -0.4444444   0.4444444  -0.4444444), wk =   0.0109739
        k(    6) = (   0.0000000   0.2222222   0.0000000), wk =   0.0082305
        k(    7) = (  -0.1111111   0.3333333  -0.1111111), wk =   0.0329218
        k(    8) = (  -0.2222222   0.4444444  -0.2222222), wk =   0.0329218
        k(    9) = (  -0.3333333   0.5555556  -0.3333333), wk =   0.0329218
        k(   10) = (   0.5555556  -0.3333333   0.5555556), wk =   0.0329218
        k(   11) = (   0.4444444  -0.2222222   0.4444444), wk =   0.0329218
        k(   12) = (   0.3333333  -0.1111111   0.3333333), wk =   0.0329218
        k(   13) = (   0.2222222  -0.0000000   0.2222222), wk =   0.0164609
        k(   14) = (   0.0000000   0.4444444   0.0000000), wk =   0.0082305
        k(   15) = (  -0.1111111   0.5555556  -0.1111111), wk =   0.0329218
        k(   16) = (  -0.2222222   0.6666667  -0.2222222), wk =   0.0329218
        k(   17) = (   0.6666667  -0.2222222   0.6666667), wk =   0.0329218
        k(   18) = (   0.5555556  -0.1111111   0.5555556), wk =   0.0329218
        k(   19) = (   0.4444444   0.0000000   0.4444444), wk =   0.0164609
        k(   20) = (   0.0000000   0.6666667   0.0000000), wk =   0.0082305
        k(   21) = (  -0.1111111   0.7777778  -0.1111111), wk =   0.0329218
        k(   22) = (   0.7777778  -0.1111111   0.7777778), wk =   0.0329218
        k(   23) = (   0.6666667  -0.0000000   0.6666667), wk =   0.0164609
        k(   24) = (   0.0000000   0.8888889   0.0000000), wk =   0.0082305
        k(   25) = (   0.8888889   0.0000000   0.8888889), wk =   0.0164609
        k(   26) = (  -0.2222222   0.4444444   0.0000000), wk =   0.0329218
        k(   27) = (  -0.3333333   0.5555556  -0.1111111), wk =   0.0658436
        k(   28) = (   0.5555556  -0.3333333   0.7777778), wk =   0.0658436
        k(   29) = (  -0.2222222   0.6666667   0.0000000), wk =   0.0329218
        k(   30) = (   0.6666667  -0.2222222   0.8888889), wk =   0.0658436
        k(   31) = (   0.5555556  -0.1111111   0.7777778), wk =   0.0658436
        k(   32) = (   0.4444444   0.0000000   0.6666667), wk =   0.0329218
        k(   33) = (   0.7777778  -0.1111111   1.0000000), wk =   0.0329218
        k(   34) = (   0.6666667  -0.0000000   0.8888889), wk =   0.0329218
        k(   35) = (   0.5555556  -0.1111111   1.0000000), wk =   0.0329218

     Dense  grid:     1243 G-vectors     FFT dimensions: (  15,  15,  15)

     Estimated max dynamical RAM per process >      12.03 MB

     Check: negative core charge=   -0.000041

     Initial potential from superposition of free atoms

     starting charge       9.9999, renormalised to      10.0000

     negative rho (up, down):  1.396E-04 0.000E+00
     Starting wfcs are   12 randomized atomic wfcs

     total cpu time spent up to now is        0.4 secs

     Self-consistent Calculation

     iteration #  1     ecut=    20.00 Ry     beta= 0.70
     Davidson diagonalization with overlap
     ethr =  1.00E-02,  avg # of iterations =  2.1

     Threshold (ethr) on eigenvalues was too large:
     Diagonalizing with lowered threshold

     Davidson diagonalization with overlap
     c_bands:  1 eigenvalues not converged
     ethr =  1.97E-05,  avg # of iterations =  7.5

     negative rho (up, down):  2.274E-04 0.000E+00

     total cpu time spent up to now is        1.0 secs

     total energy              =     -69.45601399 Ry
     estimated scf accuracy    <       0.00418196 Ry

     iteration #  2     ecut=    20.00 Ry     beta= 0.70
     Davidson diagonalization with overlap
     ethr =  4.18E-05,  avg # of iterations =  2.1

     negative rho (up, down):  2.519E-04 0.000E+00

     total cpu time spent up to now is        1.2 secs

     total energy              =     -69.45712834 Ry
     estimated scf accuracy    <       0.00049781 Ry

     iteration #  3     ecut=    20.00 Ry     beta= 0.70
     Davidson diagonalization with overlap
     ethr =  4.98E-06,  avg # of iterations =  2.0

     negative rho (up, down):  2.703E-04 0.000E+00

     total cpu time spent up to now is        1.4 secs

     total energy              =     -69.45720683 Ry
     estimated scf accuracy    <       0.00001519 Ry

     iteration #  4     ecut=    20.00 Ry     beta= 0.70
     Davidson diagonalization with overlap
     ethr =  1.52E-07,  avg # of iterations =  6.5

     negative rho (up, down):  2.705E-04 0.000E+00

     total cpu time spent up to now is        1.7 secs

     total energy              =     -69.45722504 Ry
     estimated scf accuracy    <       0.00000339 Ry

     iteration #  5     ecut=    20.00 Ry     beta= 0.70
     Davidson diagonalization with overlap
     ethr =  3.39E-08,  avg # of iterations =  2.9

     negative rho (up, down):  2.708E-04 0.000E+00

     total cpu time spent up to now is        1.9 secs

     total energy              =     -69.45722566 Ry
     estimated scf accuracy    <       0.00000015 Ry

     iteration #  6     ecut=    20.00 Ry     beta= 0.70
     Davidson diagonalization with overlap
     ethr =  1.47E-09,  avg # of iterations =  5.9

     negative rho (up, down):  2.709E-04 0.000E+00

     total cpu time spent up to now is        2.2 secs

     total energy              =     -69.45722585 Ry
     estimated scf accuracy    <       0.00000003 Ry

     iteration #  7     ecut=    20.00 Ry     beta= 0.70
     Davidson diagonalization with overlap
     ethr =  3.11E-10,  avg # of iterations =  3.6

     negative rho (up, down):  2.709E-04 0.000E+00

     total cpu time spent up to now is        2.4 secs

     total energy              =     -69.45722585 Ry
     estimated scf accuracy    <       0.00000004 Ry

     iteration #  8     ecut=    20.00 Ry     beta= 0.70
     Davidson diagonalization with overlap
     ethr =  3.11E-10,  avg # of iterations =  2.1

     negative rho (up, down):  2.709E-04 0.000E+00

     total cpu time spent up to now is        2.7 secs

     End of self-consistent calculation

          k = 0.0000 0.0000 0.0000 (   169 PWs)   bands (ev):

     7.2687   7.2687  13.3616  13.3616  13.3616  13.3616  14.3552  14.3552
    16.1281  16.1281

          k =-0.1111 0.1111-0.1111 (   159 PWs)   bands (ev):

     7.7519   7.7519  13.3108  13.3108  13.4670  13.4670  14.4650  14.4650
    15.9648  15.9648

          k =-0.2222 0.2222-0.2222 (   153 PWs)   bands (ev):

     8.9814   8.9814  13.2167  13.2167  13.5519  13.5519  14.7435  14.7435
    15.8719  15.8719

          k =-0.3333 0.3333-0.3333 (   153 PWs)   bands (ev):

    10.0171  10.0171  13.3889  13.3889  14.0924  14.0924  14.5150  14.5150
    16.6144  16.6144

          k =-0.4444 0.4444-0.4444 (   156 PWs)   bands (ev):

    10.2151  10.2151  13.2038  13.2038  14.2182  14.2182  16.2882  16.2882
    17.3176  17.3176

          k = 0.0000 0.2222 0.0000 (   161 PWs)   bands (ev):

     7.9144   7.9144  13.1474  13.1474  13.6238  13.6238  14.5423  14.5423
    15.7498  15.7498

          k =-0.1111 0.3333-0.1111 (   158 PWs)   bands (ev):

     8.9251   8.9251  12.8707  12.8707  13.7651  13.7651  14.8943  14.8943
    15.5794  15.5794

          k =-0.2222 0.4444-0.2222 (   153 PWs)   bands (ev):

    10.1655  10.1655  13.0490  13.0490  13.5413  13.5413  14.7554  14.7554
    16.4760  16.4760

          k =-0.3333 0.5556-0.3333 (   151 PWs)   bands (ev):

    10.5718  10.5718  13.1948  13.1948  14.2042  14.2042  14.7216  14.7216
    17.5784  17.5784

          k = 0.5556-0.3333 0.5556 (   158 PWs)   bands (ev):

    10.5983  10.5983  13.1194  13.1194  14.2257  14.2257  15.3928  15.3928
    17.5157  17.5157

          k = 0.4444-0.2222 0.4444 (   154 PWs)   bands (ev):

    10.5592  10.5592  13.2799  13.2799  14.1179  14.1179  14.4837  14.4837
    16.6618  16.6618

          k = 0.3333-0.1111 0.3333 (   153 PWs)   bands (ev):

     9.8255   9.8255  12.9839  12.9839  13.6315  13.6315  14.8332  14.8332
    15.6797  15.6797

          k = 0.2222-0.0000 0.2222 (   157 PWs)   bands (ev):

     8.5071   8.5071  13.0903  13.0903  13.6401  13.6401  14.7185  14.7185
    15.6196  15.6196

          k = 0.0000 0.4444 0.0000 (   153 PWs)   bands (ev):

     9.5726   9.5726  12.3761  12.3761  14.0456  14.0456  15.4117  15.4117
    15.4550  15.4550

          k =-0.1111 0.5556-0.1111 (   156 PWs)   bands (ev):

    10.5743  10.5743  12.0796  12.0796  13.8771  13.8771  15.5831  15.5831
    16.4951  16.4951

          k =-0.2222 0.6667-0.2222 (   149 PWs)   bands (ev):

    11.1388  11.1388  12.4404  12.4404  13.6666  13.6666  15.3596  15.3596
    17.7009  17.7009

          k = 0.6667-0.2222 0.6667 (   155 PWs)   bands (ev):

    11.3424  11.3424  12.6868  12.6868  13.9865  13.9865  15.1251  15.1251
    17.5896  17.5896

          k = 0.5556-0.1111 0.5556 (   155 PWs)   bands (ev):

    11.5751  11.5751  12.8638  12.8638  13.6369  13.6369  14.9430  14.9430
    16.6999  16.6999

          k = 0.4444 0.0000 0.4444 (   152 PWs)   bands (ev):

    11.1541  11.1541  12.7352  12.7352  13.4080  13.4080  14.9877  14.9877
    15.7557  15.7557

          k = 0.0000 0.6667 0.0000 (   153 PWs)   bands (ev):

    10.6939  10.6939  11.5211  11.5211  15.0924  15.0924  16.5933  16.5933
    16.6365  16.6365

          k =-0.1111 0.7778-0.1111 (   156 PWs)   bands (ev):

    10.8600  10.8600  11.4074  11.4074  15.3036  15.3036  16.6694  16.6694
    17.7843  17.7843

          k = 0.7778-0.1111 0.7778 (   160 PWs)   bands (ev):

    11.1651  11.1651  11.8784  11.8784  14.7129  14.7129  16.2696  16.2696
    17.8014  17.8014

          k = 0.6667-0.0000 0.6667 (   164 PWs)   bands (ev):

    11.6582  11.6582  12.5532  12.5532  13.8093  13.8093  15.6896  15.6896
    17.1369  17.1369

          k = 0.0000 0.8889 0.0000 (   150 PWs)   bands (ev):

    10.4971  10.4971  11.0062  11.0062  17.3172  17.3172  17.4414  17.4414
    18.4625  18.4625

          k = 0.8889 0.0000 0.8889 (   154 PWs)   bands (ev):

    10.6572  10.6572  11.1503  11.1503  16.4454  16.4454  17.1903  17.1903
    18.2078  18.2078

          k =-0.2222 0.4444 0.0000 (   154 PWs)   bands (ev):

    10.0451  10.0451  12.5319  12.5319  13.6849  13.6849  15.3228  15.3228
    15.5474  15.5474

          k =-0.3333 0.5556-0.1111 (   150 PWs)   bands (ev):

    11.1008  11.1008  12.7735  12.7735  13.2599  13.2599  15.1339  15.1339
    16.5263  16.5263

          k = 0.5556-0.3333 0.7778 (   159 PWs)   bands (ev):

    11.2508  11.2508  12.8196  12.8196  13.9402  13.9402  14.9472  14.9472
    17.3950  17.3950

          k =-0.2222 0.6667 0.0000 (   150 PWs)   bands (ev):

    11.2002  11.2002  11.8345  11.8345  13.8809  13.8809  16.4108  16.4108
    16.6858  16.6858

          k = 0.6667-0.2222 0.8889 (   153 PWs)   bands (ev):

    11.5450  11.5450  12.1722  12.1722  13.6810  13.6810  16.0276  16.0276
    17.5496  17.5496

          k = 0.5556-0.1111 0.7778 (   156 PWs)   bands (ev):

    11.9097  11.9097  12.4202  12.4202  13.5111  13.5111  15.6004  15.6004
    17.4545  17.4545

          k = 0.4444 0.0000 0.6667 (   154 PWs)   bands (ev):

    12.2069  12.2069  12.5487  12.5487  12.8121  12.8121  15.6068  15.6068
    16.7402  16.7402

          k = 0.7778-0.1111 1.0000 (   153 PWs)   bands (ev):

    10.9634  10.9634  11.3982  11.3982  15.3126  15.3126  16.9454  16.9454
    18.0103  18.0103

          k = 0.6667-0.0000 0.8889 (   155 PWs)   bands (ev):

    11.3803  11.3803  11.9464  11.9464  14.3915  14.3915  16.2352  16.2352
    17.9718  17.9718

          k = 0.5556-0.1111 1.0000 (   151 PWs)   bands (ev):

    11.8443  11.8443  12.5314  12.5314  13.2548  13.2548  15.8508  15.8508
    17.9413  17.9413

     highest occupied level (ev):    18.4625

!    total energy              =     -69.45722586 Ry
     estimated scf accuracy    <          1.9E-10 Ry

     The total energy is the sum of the following terms:
     one-electron contribution =      17.09406035 Ry
     hartree contribution      =       3.78772955 Ry
     xc contribution           =     -28.54842174 Ry
     ewald contribution        =     -61.79059402 Ry

     convergence has been achieved in   8 iterations

     negative rho (up, down):  2.709E-04 0.000E+00

     Forces acting on atoms (cartesian axes, Ry/au):

     atom    1 type  1   force =     0.00000000    0.00000000    0.00000000

     Total force =     0.000000     Total SCF correction =     0.000000


     Computing stress (Cartesian axis) and pressure


     negative rho (up, down):  2.709E-04 0.000E+00
          total   stress  (Ry/bohr**3)                   (kbar)     P=       56.95
   0.00038716   0.00000000  -0.00000000           56.95        0.00       -0.00
   0.00000000   0.00038716   0.00000000            0.00       56.95        0.00
   0.00000000   0.00000000   0.00038716            0.00        0.00       56.95


     Writing all to output data dir ./platinum.save/ :
     XML data file, charge density, pseudopotentials, collected wavefunctions

     init_run     :      0.24s CPU      0.28s WALL (       1 calls)
     electrons    :      2.03s CPU      2.27s WALL (       1 calls)
     forces       :      0.04s CPU      0.04s WALL (       1 calls)
     stress       :      0.16s CPU      0.16s WALL (       1 calls)

     Called by init_run:
     wfcinit      :      0.06s CPU      0.08s WALL (       1 calls)
     potinit      :      0.01s CPU      0.01s WALL (       1 calls)
     hinit0       :      0.16s CPU      0.18s WALL (       1 calls)

     Called by electrons:
     c_bands      :      1.62s CPU      1.83s WALL (       9 calls)
     sum_band     :      0.32s CPU      0.35s WALL (       9 calls)
     v_of_rho     :      0.00s CPU      0.00s WALL (       9 calls)
     newd         :      0.10s CPU      0.10s WALL (       9 calls)
     mix_rho      :      0.00s CPU      0.00s WALL (       9 calls)

     Called by c_bands:
     init_us_2    :      0.03s CPU      0.03s WALL (     735 calls)
     cegterg      :      1.53s CPU      1.72s WALL (     315 calls)

     Called by *egterg:
     cdiaghg      :      0.10s CPU      0.12s WALL (    1498 calls)
     h_psi        :      0.88s CPU      1.01s WALL (    1568 calls)
     s_psi        :      0.14s CPU      0.16s WALL (    1568 calls)
     g_psi        :      0.01s CPU      0.02s WALL (    1218 calls)

     Called by h_psi:
     h_psi:calbec :      0.11s CPU      0.13s WALL (    1568 calls)
     vloc_psi     :      0.61s CPU      0.70s WALL (    1568 calls)
     add_vuspsi   :      0.14s CPU      0.16s WALL (    1568 calls)

     General routines
     calbec       :      0.15s CPU      0.17s WALL (    2058 calls)
     fft          :      0.02s CPU      0.03s WALL (      99 calls)
     ffts         :      0.00s CPU      0.00s WALL (      36 calls)
     fftw         :      0.46s CPU      0.52s WALL (   53052 calls)

     Parallel routines

     PWSCF        :      2.57s CPU      2.86s WALL


   This run was terminated on:  22: 1: 7   4Nov2024            

=------------------------------------------------------------------------------=
   JOB DONE.
=------------------------------------------------------------------------------=
