
     Program PWSCF v.7.3.1 starts on  4Nov2024 at 22: 2:35 

     This program is part of the open-source Quantum ESPRESSO suite
     for quantum simulation of materials; please cite
         "P. Giannozzi et al., J. Phys.:Condens. Matter 21 395502 (2009);
         "P. Giannozzi et al., J. Phys.:Condens. Matter 29 465901 (2017);
         "P. Giannozzi et al., J. Chem. Phys. 152 154105 (2020);
          URL http://www.quantum-espresso.org", 
     in publications or presentations arising from this work. More details at
     http://www.quantum-espresso.org/quote

     Parallel version (MPI), running on     1 processors

     MPI processes distributed on     1 nodes
     11824 MiB available memory on the printing compute node when the environment starts

     Waiting for input...
     Reading input from standard input

     Current dimensions of program PWSCF are:
     Max number of different atomic species (ntypx) = 10
     Max number of k-points (npk) =  40000
     Max angular momentum in pseudopotentials (lmaxx) =  4

     Subspace diagonalization in iterative solution of the eigenvalue problem:
     a serial algorithm will be used


     G-vector sticks info
     --------------------
     sticks:   dense  smooth     PW     G-vecs:    dense   smooth      PW
     Sum         163     163     61                 1459     1459     331

     Using Slab Decomposition



     bravais-lattice index     =            2
     lattice parameter (alat)  =       7.8200  a.u.
     unit-cell volume          =     119.5529 (a.u.)^3
     number of atoms/cell      =            1
     number of atomic types    =            1
     number of electrons       =        10.00
     number of Kohn-Sham states=           10
     kinetic-energy cutoff     =      20.0000  Ry
     charge density cutoff     =      80.0000  Ry
     scf convergence threshold =      1.0E-08
     mixing beta               =       0.7000
     number of iterations used =            8  plain     mixing
     Exchange-correlation=  SLA  PZ   NOGX NOGC
                           (   1   1   0   0   0   0   0)
     Non magnetic calculation with spin-orbit


     celldm(1)=   7.820000  celldm(2)=   0.000000  celldm(3)=   0.000000
     celldm(4)=   0.000000  celldm(5)=   0.000000  celldm(6)=   0.000000

     crystal axes: (cart. coord. in units of alat)
               a(1) = (  -0.500000   0.000000   0.500000 )  
               a(2) = (   0.000000   0.500000   0.500000 )  
               a(3) = (  -0.500000   0.500000   0.000000 )  

     reciprocal axes: (cart. coord. in units 2 pi/alat)
               b(1) = ( -1.000000 -1.000000  1.000000 )  
               b(2) = (  1.000000  1.000000  1.000000 )  
               b(3) = ( -1.000000  1.000000 -1.000000 )  


     PseudoPot. # 1 for Pt read from file:
     /home/dashlander/Desktop/Sem7/CPD/Assignment_3/pseudo/Pt.rel-pz-n-rrkjus.UPF
     MD5 check sum: 4baafe8ec1942611396c7a5466f52249
     Pseudo is Ultrasoft + core correction, Zval = 10.0
     Generated by new atomic code, or converted to UPF format
     Using radial grid of 1277 points,  6 beta functions with: 
                l(1) =   2
                l(2) =   2
                l(3) =   2
                l(4) =   2
                l(5) =   1
                l(6) =   1
     Q(r) pseudized with 0 coefficients 


     atomic species   valence    mass     pseudopotential
     Pt               10.00   195.08400     Pt( 1.00)

     48 Sym. Ops., with inversion, found



   Cartesian axes

     site n.     atom                  positions (alat units)
         1        Pt     tau(   1) = (   0.0000000   0.0000000   0.0000000  )

     number of k points=    35
                       cart. coord. in units 2pi/alat
        k(    1) = (   0.0000000   0.0000000   0.0000000), wk =   0.0013717
        k(    2) = (  -0.1111111   0.1111111  -0.1111111), wk =   0.0109739
        k(    3) = (  -0.2222222   0.2222222  -0.2222222), wk =   0.0109739
        k(    4) = (  -0.3333333   0.3333333  -0.3333333), wk =   0.0109739
        k(    5) = (  -0.4444444   0.4444444  -0.4444444), wk =   0.0109739
        k(    6) = (   0.0000000   0.2222222   0.0000000), wk =   0.0082305
        k(    7) = (  -0.1111111   0.3333333  -0.1111111), wk =   0.0329218
        k(    8) = (  -0.2222222   0.4444444  -0.2222222), wk =   0.0329218
        k(    9) = (  -0.3333333   0.5555556  -0.3333333), wk =   0.0329218
        k(   10) = (   0.5555556  -0.3333333   0.5555556), wk =   0.0329218
        k(   11) = (   0.4444444  -0.2222222   0.4444444), wk =   0.0329218
        k(   12) = (   0.3333333  -0.1111111   0.3333333), wk =   0.0329218
        k(   13) = (   0.2222222  -0.0000000   0.2222222), wk =   0.0164609
        k(   14) = (   0.0000000   0.4444444   0.0000000), wk =   0.0082305
        k(   15) = (  -0.1111111   0.5555556  -0.1111111), wk =   0.0329218
        k(   16) = (  -0.2222222   0.6666667  -0.2222222), wk =   0.0329218
        k(   17) = (   0.6666667  -0.2222222   0.6666667), wk =   0.0329218
        k(   18) = (   0.5555556  -0.1111111   0.5555556), wk =   0.0329218
        k(   19) = (   0.4444444   0.0000000   0.4444444), wk =   0.0164609
        k(   20) = (   0.0000000   0.6666667   0.0000000), wk =   0.0082305
        k(   21) = (  -0.1111111   0.7777778  -0.1111111), wk =   0.0329218
        k(   22) = (   0.7777778  -0.1111111   0.7777778), wk =   0.0329218
        k(   23) = (   0.6666667  -0.0000000   0.6666667), wk =   0.0164609
        k(   24) = (   0.0000000   0.8888889   0.0000000), wk =   0.0082305
        k(   25) = (   0.8888889   0.0000000   0.8888889), wk =   0.0164609
        k(   26) = (  -0.2222222   0.4444444   0.0000000), wk =   0.0329218
        k(   27) = (  -0.3333333   0.5555556  -0.1111111), wk =   0.0658436
        k(   28) = (   0.5555556  -0.3333333   0.7777778), wk =   0.0658436
        k(   29) = (  -0.2222222   0.6666667   0.0000000), wk =   0.0329218
        k(   30) = (   0.6666667  -0.2222222   0.8888889), wk =   0.0658436
        k(   31) = (   0.5555556  -0.1111111   0.7777778), wk =   0.0658436
        k(   32) = (   0.4444444   0.0000000   0.6666667), wk =   0.0329218
        k(   33) = (   0.7777778  -0.1111111   1.0000000), wk =   0.0329218
        k(   34) = (   0.6666667  -0.0000000   0.8888889), wk =   0.0329218
        k(   35) = (   0.5555556  -0.1111111   1.0000000), wk =   0.0329218

     Dense  grid:     1459 G-vectors     FFT dimensions: (  15,  15,  15)

     Estimated max dynamical RAM per process >      13.89 MB

     Check: negative core charge=   -0.000043

     Initial potential from superposition of free atoms

     starting charge       9.9999, renormalised to      10.0000

     negative rho (up, down):  1.967E-04 0.000E+00
     Starting wfcs are   12 randomized atomic wfcs

     total cpu time spent up to now is        0.4 secs

     Self-consistent Calculation

     iteration #  1     ecut=    20.00 Ry     beta= 0.70
     Davidson diagonalization with overlap
     ethr =  1.00E-02,  avg # of iterations =  2.0

     Threshold (ethr) on eigenvalues was too large:
     Diagonalizing with lowered threshold

     Davidson diagonalization with overlap
     ethr =  4.60E-05,  avg # of iterations =  6.5

     negative rho (up, down):  2.761E-04 0.000E+00

     total cpu time spent up to now is        1.0 secs

     total energy              =     -69.44214225 Ry
     estimated scf accuracy    <       0.00198424 Ry

     iteration #  2     ecut=    20.00 Ry     beta= 0.70
     Davidson diagonalization with overlap
     ethr =  1.98E-05,  avg # of iterations =  2.2

     negative rho (up, down):  2.981E-04 0.000E+00

     total cpu time spent up to now is        1.2 secs

     total energy              =     -69.44256403 Ry
     estimated scf accuracy    <       0.00023534 Ry

     iteration #  3     ecut=    20.00 Ry     beta= 0.70
     Davidson diagonalization with overlap
     ethr =  2.35E-06,  avg # of iterations =  3.0

     negative rho (up, down):  3.136E-04 0.000E+00

     total cpu time spent up to now is        1.4 secs

     total energy              =     -69.44262141 Ry
     estimated scf accuracy    <       0.00000919 Ry

     iteration #  4     ecut=    20.00 Ry     beta= 0.70
     Davidson diagonalization with overlap
     ethr =  9.19E-08,  avg # of iterations =  7.0

     negative rho (up, down):  3.136E-04 0.000E+00

     total cpu time spent up to now is        1.8 secs

     total energy              =     -69.44263162 Ry
     estimated scf accuracy    <       0.00000148 Ry

     iteration #  5     ecut=    20.00 Ry     beta= 0.70
     Davidson diagonalization with overlap
     ethr =  1.48E-08,  avg # of iterations =  3.5

     negative rho (up, down):  3.137E-04 0.000E+00

     total cpu time spent up to now is        2.0 secs

     total energy              =     -69.44263218 Ry
     estimated scf accuracy    <       0.00000002 Ry

     iteration #  6     ecut=    20.00 Ry     beta= 0.70
     Davidson diagonalization with overlap
     ethr =  2.34E-10,  avg # of iterations =  7.0

     negative rho (up, down):  3.137E-04 0.000E+00

     total cpu time spent up to now is        2.3 secs

     total energy              =     -69.44263222 Ry
     estimated scf accuracy    <       0.00000001 Ry

     iteration #  7     ecut=    20.00 Ry     beta= 0.70
     Davidson diagonalization with overlap
     ethr =  1.17E-10,  avg # of iterations =  3.5

     negative rho (up, down):  3.137E-04 0.000E+00

     total cpu time spent up to now is        2.6 secs

     total energy              =     -69.44263222 Ry
     estimated scf accuracy    <       0.00000002 Ry

     iteration #  8     ecut=    20.00 Ry     beta= 0.70
     Davidson diagonalization with overlap
     ethr =  1.17E-10,  avg # of iterations =  2.2

     negative rho (up, down):  3.137E-04 0.000E+00

     total cpu time spent up to now is        2.8 secs

     End of self-consistent calculation

          k = 0.0000 0.0000 0.0000 (   169 PWs)   bands (ev):

     5.1972   5.1972  10.4646  10.4646  10.4646  10.4646  11.4920  11.4920
    12.8154  12.8154

          k =-0.1111 0.1111-0.1111 (   172 PWs)   bands (ev):

     5.6139   5.6139  10.4441  10.4441  10.5361  10.5361  11.5753  11.5753
    12.6840  12.6840

          k =-0.2222 0.2222-0.2222 (   171 PWs)   bands (ev):

     6.7035   6.7035  10.4139  10.4139  10.5929  10.5929  11.7999  11.7999
    12.5792  12.5792

          k =-0.3333 0.3333-0.3333 (   183 PWs)   bands (ev):

     7.7124   7.7124  10.4797  10.4797  11.1449  11.1449  11.6278  11.6278
    13.1373  13.1373

          k =-0.4444 0.4444-0.4444 (   174 PWs)   bands (ev):

     7.9649   7.9649  10.3471  10.3471  11.3758  11.3758  13.1146  13.1146
    13.7121  13.7121

          k = 0.0000 0.2222 0.0000 (   173 PWs)   bands (ev):

     5.7546   5.7546  10.3254  10.3254  10.6550  10.6550  11.6240  11.6240
    12.5547  12.5547

          k =-0.1111 0.3333-0.1111 (   176 PWs)   bands (ev):

     6.6424   6.6424  10.1438  10.1438  10.7624  10.7624  11.8965  11.8965
    12.4071  12.4071

          k =-0.2222 0.4444-0.2222 (   184 PWs)   bands (ev):

     7.7952   7.7952  10.2838  10.2838  10.6447  10.6447  11.8004  11.8004
    13.0401  13.0401

          k =-0.3333 0.5556-0.3333 (   180 PWs)   bands (ev):

     8.2494   8.2494  10.3607  10.3607  11.3040  11.3040  11.7820  11.7820
    13.8695  13.8695

          k = 0.5556-0.3333 0.5556 (   176 PWs)   bands (ev):

     8.2917   8.2917  10.3051  10.3051  11.3613  11.3613  12.3284  12.3284
    13.8418  13.8418

          k = 0.4444-0.2222 0.4444 (   179 PWs)   bands (ev):

     8.2088   8.2088  10.4102  10.4102  11.2098  11.2098  11.5927  11.5927
    13.2071  13.2071

          k = 0.3333-0.1111 0.3333 (   176 PWs)   bands (ev):

     7.4575   7.4575  10.2377  10.2377  10.6812  10.6812  11.8649  11.8649
    12.4667  12.4667

          k = 0.2222-0.0000 0.2222 (   174 PWs)   bands (ev):

     6.2723   6.2723  10.3009  10.3009  10.6638  10.6638  11.7653  11.7653
    12.4356  12.4356

          k = 0.0000 0.4444 0.0000 (   178 PWs)   bands (ev):

     7.2245   7.2245   9.7785   9.7785  10.9799  10.9799  12.2482  12.2482
    12.3541  12.3541

          k =-0.1111 0.5556-0.1111 (   182 PWs)   bands (ev):

     8.1656   8.1656   9.5560   9.5560  10.9160  10.9160  12.3997  12.3997
    13.0535  13.0535

          k =-0.2222 0.6667-0.2222 (   184 PWs)   bands (ev):

     8.7447   8.7447   9.8465   9.8465  10.7990  10.7990  12.2304  12.2304
    13.9554  13.9554

          k = 0.6667-0.2222 0.6667 (   180 PWs)   bands (ev):

     8.9255   8.9255  10.0385  10.0385  11.1063  11.1063  12.0648  12.0648
    13.8964  13.8964

          k = 0.5556-0.1111 0.5556 (   182 PWs)   bands (ev):

     9.0819   9.0819  10.1437  10.1437  10.8681  10.8681  11.8879  11.8879
    13.2481  13.2481

          k = 0.4444 0.0000 0.4444 (   178 PWs)   bands (ev):

     8.6371   8.6371  10.0519  10.0519  10.5920  10.5920  11.9241  11.9241
    12.5543  12.5543

          k = 0.0000 0.6667 0.0000 (   174 PWs)   bands (ev):

     8.3710   8.3710   9.1255   9.1255  11.8912  11.8912  13.1238  13.1238
    13.1858  13.1858

          k =-0.1111 0.7778-0.1111 (   187 PWs)   bands (ev):

     8.5748   8.5748   9.0353   9.0353  12.1230  12.1230  13.1938  13.1938
    14.0544  14.0544

          k = 0.7778-0.1111 0.7778 (   182 PWs)   bands (ev):

     8.8400   8.8400   9.4090   9.4090  11.6881  11.6881  12.8898  12.8898
    14.0802  14.0802

          k = 0.6667-0.0000 0.6667 (   186 PWs)   bands (ev):

     9.2145   9.2145   9.9241   9.9241  11.0062  11.0062  12.4358  12.4358
    13.5903  13.5903

          k = 0.0000 0.8889 0.0000 (   190 PWs)   bands (ev):

     8.3062   8.3062   8.7210   8.7210  13.6115  13.6115  13.7117  13.7117
    14.7180  14.7180

          k = 0.8889 0.0000 0.8889 (   186 PWs)   bands (ev):

     8.4451   8.4451   8.8325   8.8325  13.0444  13.0444  13.5427  13.5427
    14.4444  14.4444

          k =-0.2222 0.4444 0.0000 (   178 PWs)   bands (ev):

     7.6409   7.6409   9.8999   9.8999  10.7429  10.7429  12.2240  12.2240
    12.3566  12.3566

          k =-0.3333 0.5556-0.1111 (   181 PWs)   bands (ev):

     8.6392   8.6392  10.0780  10.0780  10.4899  10.4899  12.0552  12.0552
    13.1055  13.1055

          k = 0.5556-0.3333 0.7778 (   180 PWs)   bands (ev):

     8.8299   8.8299  10.1281  10.1281  11.0687  11.0687  11.9438  11.9438
    13.7515  13.7515

          k =-0.2222 0.6667 0.0000 (   182 PWs)   bands (ev):

     8.7873   8.7873   9.3681   9.3681  10.9681  10.9681  13.0047  13.0047
    13.2288  13.2288

          k = 0.6667-0.2222 0.8889 (   185 PWs)   bands (ev):

     9.1211   9.1211   9.6396   9.6396  10.8496  10.8496  12.7335  12.7335
    13.8725  13.8725

          k = 0.5556-0.1111 0.7778 (   179 PWs)   bands (ev):

     9.4013   9.4013   9.8356   9.8356  10.7449  10.7449  12.4124  12.4124
    13.8054  13.8054

          k = 0.4444 0.0000 0.6667 (   185 PWs)   bands (ev):

     9.5731   9.5731   9.8963   9.8963  10.2379  10.2379  12.4034  12.4034
    13.2744  13.2744

          k = 0.7778-0.1111 1.0000 (   183 PWs)   bands (ev):

     8.6871   8.6871   9.0252   9.0252  12.1557  12.1557  13.3921  13.3921
    14.2556  14.2556

          k = 0.6667-0.0000 0.8889 (   181 PWs)   bands (ev):

     9.0247   9.0247   9.4555   9.4555  11.4380  11.4380  12.8787  12.8787
    14.2031  14.2031

          k = 0.5556-0.1111 1.0000 (   187 PWs)   bands (ev):

     9.3953   9.3953   9.8910   9.8910  10.5512  10.5512  12.6088  12.6088
    14.1638  14.1638

     highest occupied level (ev):    14.7180

!    total energy              =     -69.44263222 Ry
     estimated scf accuracy    <          4.4E-11 Ry

     The total energy is the sum of the following terms:
     one-electron contribution =      12.83208655 Ry
     hartree contribution      =       4.74295807 Ry
     xc contribution           =     -28.38772702 Ry
     ewald contribution        =     -58.62994982 Ry

     convergence has been achieved in   8 iterations

     negative rho (up, down):  3.137E-04 0.000E+00

     Forces acting on atoms (cartesian axes, Ry/au):

     atom    1 type  1   force =     0.00000000    0.00000000    0.00000000

     Total force =     0.000000     Total SCF correction =     0.000000


     Computing stress (Cartesian axis) and pressure


     negative rho (up, down):  3.137E-04 0.000E+00
          total   stress  (Ry/bohr**3)                   (kbar)     P=     -259.20
  -0.00176199  -0.00000000  -0.00000000         -259.20       -0.00       -0.00
  -0.00000000  -0.00176199   0.00000000           -0.00     -259.20        0.00
  -0.00000000   0.00000000  -0.00176199           -0.00        0.00     -259.20


     Writing all to output data dir ./platinum.save/ :
     XML data file, charge density, pseudopotentials, collected wavefunctions

     init_run     :      0.27s CPU      0.29s WALL (       1 calls)
     electrons    :      2.21s CPU      2.45s WALL (       1 calls)
     forces       :      0.04s CPU      0.04s WALL (       1 calls)
     stress       :      0.19s CPU      0.19s WALL (       1 calls)

     Called by init_run:
     wfcinit      :      0.07s CPU      0.08s WALL (       1 calls)
     potinit      :      0.01s CPU      0.01s WALL (       1 calls)
     hinit0       :      0.17s CPU      0.18s WALL (       1 calls)

     Called by electrons:
     c_bands      :      1.78s CPU      1.98s WALL (       9 calls)
     sum_band     :      0.33s CPU      0.37s WALL (       9 calls)
     v_of_rho     :      0.00s CPU      0.00s WALL (       9 calls)
     newd         :      0.11s CPU      0.11s WALL (       9 calls)
     mix_rho      :      0.00s CPU      0.00s WALL (       9 calls)

     Called by c_bands:
     init_us_2    :      0.03s CPU      0.03s WALL (     735 calls)
     cegterg      :      1.66s CPU      1.85s WALL (     315 calls)

     Called by *egterg:
     cdiaghg      :      0.11s CPU      0.12s WALL (    1574 calls)
     h_psi        :      0.94s CPU      1.06s WALL (    1644 calls)
     s_psi        :      0.16s CPU      0.18s WALL (    1644 calls)
     g_psi        :      0.02s CPU      0.02s WALL (    1294 calls)

     Called by h_psi:
     h_psi:calbec :      0.13s CPU      0.14s WALL (    1644 calls)
     vloc_psi     :      0.63s CPU      0.71s WALL (    1644 calls)
     add_vuspsi   :      0.16s CPU      0.18s WALL (    1644 calls)

     General routines
     calbec       :      0.18s CPU      0.20s WALL (    2134 calls)
     fft          :      0.03s CPU      0.03s WALL (      99 calls)
     ffts         :      0.00s CPU      0.00s WALL (      36 calls)
     fftw         :      0.47s CPU      0.53s WALL (   52784 calls)

     Parallel routines

     PWSCF        :      2.81s CPU      3.08s WALL


   This run was terminated on:  22: 2:38   4Nov2024            

=------------------------------------------------------------------------------=
   JOB DONE.
=------------------------------------------------------------------------------=
