
     Program PWSCF v.7.3.1 starts on  4Nov2024 at 22: 2:40 

     This program is part of the open-source Quantum ESPRESSO suite
     for quantum simulation of materials; please cite
         "P. Giannozzi et al., J. Phys.:Condens. Matter 21 395502 (2009);
         "P. Giannozzi et al., J. Phys.:Condens. Matter 29 465901 (2017);
         "P. Giannozzi et al., J. Chem. Phys. 152 154105 (2020);
          URL http://www.quantum-espresso.org", 
     in publications or presentations arising from this work. More details at
     http://www.quantum-espresso.org/quote

     Parallel version (MPI), running on     1 processors

     MPI processes distributed on     1 nodes
     11800 MiB available memory on the printing compute node when the environment starts

     Waiting for input...
     Reading input from standard input

     Current dimensions of program PWSCF are:
     Max number of different atomic species (ntypx) = 10
     Max number of k-points (npk) =  40000
     Max angular momentum in pseudopotentials (lmaxx) =  4

     Subspace diagonalization in iterative solution of the eigenvalue problem:
     a serial algorithm will be used


     G-vector sticks info
     --------------------
     sticks:   dense  smooth     PW     G-vecs:    dense   smooth      PW
     Sum         163     163     61                 1459     1459     331

     Using Slab Decomposition



     bravais-lattice index     =            2
     lattice parameter (alat)  =       7.8400  a.u.
     unit-cell volume          =     120.4726 (a.u.)^3
     number of atoms/cell      =            1
     number of atomic types    =            1
     number of electrons       =        10.00
     number of Kohn-Sham states=           10
     kinetic-energy cutoff     =      20.0000  Ry
     charge density cutoff     =      80.0000  Ry
     scf convergence threshold =      1.0E-08
     mixing beta               =       0.7000
     number of iterations used =            8  plain     mixing
     Exchange-correlation=  SLA  PZ   NOGX NOGC
                           (   1   1   0   0   0   0   0)
     Non magnetic calculation with spin-orbit


     celldm(1)=   7.840000  celldm(2)=   0.000000  celldm(3)=   0.000000
     celldm(4)=   0.000000  celldm(5)=   0.000000  celldm(6)=   0.000000

     crystal axes: (cart. coord. in units of alat)
               a(1) = (  -0.500000   0.000000   0.500000 )  
               a(2) = (   0.000000   0.500000   0.500000 )  
               a(3) = (  -0.500000   0.500000   0.000000 )  

     reciprocal axes: (cart. coord. in units 2 pi/alat)
               b(1) = ( -1.000000 -1.000000  1.000000 )  
               b(2) = (  1.000000  1.000000  1.000000 )  
               b(3) = ( -1.000000  1.000000 -1.000000 )  


     PseudoPot. # 1 for Pt read from file:
     /home/dashlander/Desktop/Sem7/CPD/Assignment_3/pseudo/Pt.rel-pz-n-rrkjus.UPF
     MD5 check sum: 4baafe8ec1942611396c7a5466f52249
     Pseudo is Ultrasoft + core correction, Zval = 10.0
     Generated by new atomic code, or converted to UPF format
     Using radial grid of 1277 points,  6 beta functions with: 
                l(1) =   2
                l(2) =   2
                l(3) =   2
                l(4) =   2
                l(5) =   1
                l(6) =   1
     Q(r) pseudized with 0 coefficients 


     atomic species   valence    mass     pseudopotential
     Pt               10.00   195.08400     Pt( 1.00)

     48 Sym. Ops., with inversion, found



   Cartesian axes

     site n.     atom                  positions (alat units)
         1        Pt     tau(   1) = (   0.0000000   0.0000000   0.0000000  )

     number of k points=    35
                       cart. coord. in units 2pi/alat
        k(    1) = (   0.0000000   0.0000000   0.0000000), wk =   0.0013717
        k(    2) = (  -0.1111111   0.1111111  -0.1111111), wk =   0.0109739
        k(    3) = (  -0.2222222   0.2222222  -0.2222222), wk =   0.0109739
        k(    4) = (  -0.3333333   0.3333333  -0.3333333), wk =   0.0109739
        k(    5) = (  -0.4444444   0.4444444  -0.4444444), wk =   0.0109739
        k(    6) = (   0.0000000   0.2222222   0.0000000), wk =   0.0082305
        k(    7) = (  -0.1111111   0.3333333  -0.1111111), wk =   0.0329218
        k(    8) = (  -0.2222222   0.4444444  -0.2222222), wk =   0.0329218
        k(    9) = (  -0.3333333   0.5555556  -0.3333333), wk =   0.0329218
        k(   10) = (   0.5555556  -0.3333333   0.5555556), wk =   0.0329218
        k(   11) = (   0.4444444  -0.2222222   0.4444444), wk =   0.0329218
        k(   12) = (   0.3333333  -0.1111111   0.3333333), wk =   0.0329218
        k(   13) = (   0.2222222  -0.0000000   0.2222222), wk =   0.0164609
        k(   14) = (   0.0000000   0.4444444   0.0000000), wk =   0.0082305
        k(   15) = (  -0.1111111   0.5555556  -0.1111111), wk =   0.0329218
        k(   16) = (  -0.2222222   0.6666667  -0.2222222), wk =   0.0329218
        k(   17) = (   0.6666667  -0.2222222   0.6666667), wk =   0.0329218
        k(   18) = (   0.5555556  -0.1111111   0.5555556), wk =   0.0329218
        k(   19) = (   0.4444444   0.0000000   0.4444444), wk =   0.0164609
        k(   20) = (   0.0000000   0.6666667   0.0000000), wk =   0.0082305
        k(   21) = (  -0.1111111   0.7777778  -0.1111111), wk =   0.0329218
        k(   22) = (   0.7777778  -0.1111111   0.7777778), wk =   0.0329218
        k(   23) = (   0.6666667  -0.0000000   0.6666667), wk =   0.0164609
        k(   24) = (   0.0000000   0.8888889   0.0000000), wk =   0.0082305
        k(   25) = (   0.8888889   0.0000000   0.8888889), wk =   0.0164609
        k(   26) = (  -0.2222222   0.4444444   0.0000000), wk =   0.0329218
        k(   27) = (  -0.3333333   0.5555556  -0.1111111), wk =   0.0658436
        k(   28) = (   0.5555556  -0.3333333   0.7777778), wk =   0.0658436
        k(   29) = (  -0.2222222   0.6666667   0.0000000), wk =   0.0329218
        k(   30) = (   0.6666667  -0.2222222   0.8888889), wk =   0.0658436
        k(   31) = (   0.5555556  -0.1111111   0.7777778), wk =   0.0658436
        k(   32) = (   0.4444444   0.0000000   0.6666667), wk =   0.0329218
        k(   33) = (   0.7777778  -0.1111111   1.0000000), wk =   0.0329218
        k(   34) = (   0.6666667  -0.0000000   0.8888889), wk =   0.0329218
        k(   35) = (   0.5555556  -0.1111111   1.0000000), wk =   0.0329218

     Dense  grid:     1459 G-vectors     FFT dimensions: (  15,  15,  15)

     Estimated max dynamical RAM per process >      13.90 MB

     Check: negative core charge=   -0.000047

     Initial potential from superposition of free atoms

     starting charge       9.9999, renormalised to      10.0000

     negative rho (up, down):  2.125E-04 0.000E+00
     Starting wfcs are   12 randomized atomic wfcs

     total cpu time spent up to now is        0.4 secs

     Self-consistent Calculation

     iteration #  1     ecut=    20.00 Ry     beta= 0.70
     Davidson diagonalization with overlap
     ethr =  1.00E-02,  avg # of iterations =  2.0

     Threshold (ethr) on eigenvalues was too large:
     Diagonalizing with lowered threshold

     Davidson diagonalization with overlap
     ethr =  4.63E-05,  avg # of iterations =  6.3

     negative rho (up, down):  2.914E-04 0.000E+00

     total cpu time spent up to now is        1.0 secs

     total energy              =     -69.44059579 Ry
     estimated scf accuracy    <       0.00190254 Ry

     iteration #  2     ecut=    20.00 Ry     beta= 0.70
     Davidson diagonalization with overlap
     ethr =  1.90E-05,  avg # of iterations =  2.2

     negative rho (up, down):  3.137E-04 0.000E+00

     total cpu time spent up to now is        1.2 secs

     total energy              =     -69.44099331 Ry
     estimated scf accuracy    <       0.00021325 Ry

     iteration #  3     ecut=    20.00 Ry     beta= 0.70
     Davidson diagonalization with overlap
     ethr =  2.13E-06,  avg # of iterations =  3.0

     negative rho (up, down):  3.289E-04 0.000E+00

     total cpu time spent up to now is        1.4 secs

     total energy              =     -69.44104961 Ry
     estimated scf accuracy    <       0.00000911 Ry

     iteration #  4     ecut=    20.00 Ry     beta= 0.70
     Davidson diagonalization with overlap
     ethr =  9.11E-08,  avg # of iterations =  6.0

     negative rho (up, down):  3.288E-04 0.000E+00

     total cpu time spent up to now is        1.7 secs

     total energy              =     -69.44105839 Ry
     estimated scf accuracy    <       0.00000085 Ry

     iteration #  5     ecut=    20.00 Ry     beta= 0.70
     Davidson diagonalization with overlap
     ethr =  8.48E-09,  avg # of iterations =  4.8

     negative rho (up, down):  3.290E-04 0.000E+00

     total cpu time spent up to now is        2.0 secs

     End of self-consistent calculation

          k = 0.0000 0.0000 0.0000 (   169 PWs)   bands (ev):

     5.1060   5.1060  10.3327  10.3327  10.3327  10.3327  11.3620  11.3620
    12.6663  12.6663

          k =-0.1111 0.1111-0.1111 (   172 PWs)   bands (ev):

     5.5198   5.5198  10.3134  10.3134  10.4028  10.4028  11.4442  11.4442
    12.5363  12.5363

          k =-0.2222 0.2222-0.2222 (   171 PWs)   bands (ev):

     6.6029   6.6029  10.2863  10.2863  10.4585  10.4585  11.6664  11.6664
    12.4313  12.4313

          k =-0.3333 0.3333-0.3333 (   183 PWs)   bands (ev):

     7.6091   7.6091  10.3474  10.3474  11.0122  11.0122  11.4968  11.4968
    12.9816  12.9816

          k =-0.4444 0.4444-0.4444 (   174 PWs)   bands (ev):

     7.8630   7.8630  10.2171  10.2171  11.2466  11.2466  12.9697  12.9697
    13.5548  13.5548

          k = 0.0000 0.2222 0.0000 (   173 PWs)   bands (ev):

     5.6596   5.6596  10.1966  10.1966  10.5201  10.5201  11.4917  11.4917
    12.4105  12.4105

          k =-0.1111 0.3333-0.1111 (   176 PWs)   bands (ev):

     6.5417   6.5417  10.0191  10.0191  10.6261  10.6261  11.7607  11.7607
    12.2640  12.2640

          k =-0.2222 0.4444-0.2222 (   184 PWs)   bands (ev):

     7.6896   7.6896  10.1579  10.1579  10.5133  10.5133  11.6665  11.6665
    12.8858  12.8858

          k =-0.3333 0.5556-0.3333 (   180 PWs)   bands (ev):

     8.1444   8.1444  10.2314  10.2314  11.1731  11.1731  11.6495  11.6495
    13.7039  13.7039

          k = 0.5556-0.3333 0.5556 (   180 PWs)   bands (ev):

     8.1869   8.1869  10.1766  10.1766  11.2313  11.2313  12.1903  12.1903
    13.6774  13.6774

          k = 0.4444-0.2222 0.4444 (   181 PWs)   bands (ev):

     8.1029   8.1029  10.2796  10.2796  11.0787  11.0787  11.4618  11.4618
    13.0518  13.0518

          k = 0.3333-0.1111 0.3333 (   178 PWs)   bands (ev):

     7.3525   7.3525  10.1126  10.1126  10.5473  10.5473  11.7302  11.7302
    12.3218  12.3218

          k = 0.2222-0.0000 0.2222 (   174 PWs)   bands (ev):

     6.1739   6.1739  10.1735  10.1735  10.5287  10.5287  11.6314  11.6314
    12.2919  12.2919

          k = 0.0000 0.4444 0.0000 (   178 PWs)   bands (ev):

     7.1208   7.1208   9.6594   9.6594  10.8411  10.8411  12.1053  12.1053
    12.2141  12.2141

          k =-0.1111 0.5556-0.1111 (   184 PWs)   bands (ev):

     8.0580   8.0580   9.4405   9.4405  10.7816  10.7816  12.2561  12.2561
    12.8987  12.8987

          k =-0.2222 0.6667-0.2222 (   184 PWs)   bands (ev):

     8.6362   8.6362   9.7282   9.7282  10.6698  10.6698  12.0893  12.0893
    13.7882  13.7882

          k = 0.6667-0.2222 0.6667 (   182 PWs)   bands (ev):

     8.8156   8.8156   9.9173   9.9173  10.9768  10.9768  11.9266  11.9266
    13.7305  13.7305

          k = 0.5556-0.1111 0.5556 (   182 PWs)   bands (ev):

     8.9692   8.9692  10.0193  10.0193  10.7437  10.7437  11.7499  11.7499
    13.0932  13.0932

          k = 0.4444 0.0000 0.4444 (   184 PWs)   bands (ev):

     8.5248   8.5248   9.9296   9.9296  10.4638  10.4638  11.7856  11.7856
    12.4097  12.4097

          k = 0.0000 0.6667 0.0000 (   182 PWs)   bands (ev):

     8.2657   8.2657   9.0154   9.0154  11.7469  11.7469  12.9650  12.9650
    13.0323  13.0323

          k =-0.1111 0.7778-0.1111 (   187 PWs)   bands (ev):

     8.4706   8.4706   8.9266   8.9266  11.9801  11.9801  13.0377  13.0377
    13.8880  13.8880

          k = 0.7778-0.1111 0.7778 (   186 PWs)   bands (ev):

     8.7334   8.7334   9.2963   9.2963  11.5519  11.5519  12.7375  12.7375
    13.9136  13.9136

          k = 0.6667-0.0000 0.6667 (   186 PWs)   bands (ev):

     9.1027   9.1027   9.8044   9.8044  10.8804  10.8804  12.2890  12.2890
    13.4312  13.4312

          k = 0.0000 0.8889 0.0000 (   190 PWs)   bands (ev):

     8.2060   8.2060   8.6161   8.6161  13.4457  13.4457  13.5445  13.5445
    14.5473  14.5473

          k = 0.8889 0.0000 0.8889 (   186 PWs)   bands (ev):

     8.3437   8.3437   8.7262   8.7262  12.8911  12.8911  13.3792  13.3792
    14.2765  14.2765

          k =-0.2222 0.4444 0.0000 (   178 PWs)   bands (ev):

     7.5346   7.5346   9.7796   9.7796  10.6090  10.6090  12.0842  12.0842
    12.2126  12.2126

          k =-0.3333 0.5556-0.1111 (   181 PWs)   bands (ev):

     8.5289   8.5289   9.9553   9.9553  10.3640  10.3640  11.9163  11.9163
    12.9518  12.9518

          k = 0.5556-0.3333 0.7778 (   180 PWs)   bands (ev):

     8.7202   8.7202  10.0048  10.0048  10.9397  10.9397  11.8083  11.8083
    13.5883  13.5883

          k =-0.2222 0.6667 0.0000 (   186 PWs)   bands (ev):

     8.6781   8.6781   9.2552   9.2552  10.8364  10.8364  12.8508  12.8508
    13.0732  13.0732

          k = 0.6667-0.2222 0.8889 (   188 PWs)   bands (ev):

     9.0105   9.0105   9.5240   9.5240  10.7221  10.7221  12.5851  12.5851
    13.7072  13.7072

          k = 0.5556-0.1111 0.7778 (   179 PWs)   bands (ev):

     9.2868   9.2868   9.7177   9.7177  10.6206  10.6206  12.2688  12.2688
    13.6420  13.6420

          k = 0.4444 0.0000 0.6667 (   185 PWs)   bands (ev):

     9.4544   9.4544   9.7752   9.7752  10.1213  10.1213  12.2590  12.2590
    13.1188  13.1188

          k = 0.7778-0.1111 1.0000 (   188 PWs)   bands (ev):

     8.5830   8.5830   8.9165   8.9165  12.0136  12.0136  13.2323  13.2323
    14.0874  14.0874

          k = 0.6667-0.0000 0.8889 (   182 PWs)   bands (ev):

     8.9168   8.9168   9.3419   9.3419  11.3052  11.3052  12.7275  12.7275
    14.0349  14.0349

          k = 0.5556-0.1111 1.0000 (   187 PWs)   bands (ev):

     9.2831   9.2831   9.7705   9.7705  10.4298  10.4298  12.4628  12.4628
    13.9951  13.9951

     highest occupied level (ev):    14.5473

!    total energy              =     -69.44105882 Ry
     estimated scf accuracy    <          1.3E-09 Ry

     The total energy is the sum of the following terms:
     one-electron contribution =      12.62823116 Ry
     hartree contribution      =       4.79212168 Ry
     xc contribution           =     -28.38102803 Ry
     ewald contribution        =     -58.48038362 Ry

     convergence has been achieved in   5 iterations

     negative rho (up, down):  3.290E-04 0.000E+00

     Forces acting on atoms (cartesian axes, Ry/au):

     atom    1 type  1   force =     0.00000000    0.00000000    0.00000000

     Total force =     0.000000     Total SCF correction =     0.000000


     Computing stress (Cartesian axis) and pressure


     negative rho (up, down):  3.290E-04 0.000E+00
          total   stress  (Ry/bohr**3)                   (kbar)     P=     -267.60
  -0.00181911   0.00000000   0.00000000         -267.60        0.00        0.00
   0.00000000  -0.00181911  -0.00000000            0.00     -267.60       -0.00
   0.00000000  -0.00000000  -0.00181911            0.00       -0.00     -267.60


     Writing all to output data dir ./platinum.save/ :
     XML data file, charge density, pseudopotentials, collected wavefunctions

     init_run     :      0.25s CPU      0.29s WALL (       1 calls)
     electrons    :      1.45s CPU      1.63s WALL (       1 calls)
     forces       :      0.04s CPU      0.04s WALL (       1 calls)
     stress       :      0.19s CPU      0.19s WALL (       1 calls)

     Called by init_run:
     wfcinit      :      0.06s CPU      0.08s WALL (       1 calls)
     potinit      :      0.01s CPU      0.01s WALL (       1 calls)
     hinit0       :      0.17s CPU      0.18s WALL (       1 calls)

     Called by electrons:
     c_bands      :      1.16s CPU      1.31s WALL (       6 calls)
     sum_band     :      0.22s CPU      0.25s WALL (       6 calls)
     v_of_rho     :      0.00s CPU      0.00s WALL (       6 calls)
     newd         :      0.08s CPU      0.08s WALL (       6 calls)
     mix_rho      :      0.00s CPU      0.00s WALL (       6 calls)

     Called by c_bands:
     init_us_2    :      0.02s CPU      0.02s WALL (     525 calls)
     cegterg      :      1.08s CPU      1.23s WALL (     210 calls)

     Called by *egterg:
     cdiaghg      :      0.07s CPU      0.08s WALL (    1025 calls)
     h_psi        :      0.62s CPU      0.72s WALL (    1095 calls)
     s_psi        :      0.11s CPU      0.12s WALL (    1095 calls)
     g_psi        :      0.01s CPU      0.01s WALL (     850 calls)

     Called by h_psi:
     h_psi:calbec :      0.09s CPU      0.10s WALL (    1095 calls)
     vloc_psi     :      0.42s CPU      0.49s WALL (    1095 calls)
     add_vuspsi   :      0.10s CPU      0.12s WALL (    1095 calls)

     General routines
     calbec       :      0.12s CPU      0.14s WALL (    1480 calls)
     fft          :      0.02s CPU      0.03s WALL (      69 calls)
     ffts         :      0.00s CPU      0.00s WALL (      24 calls)
     fftw         :      0.31s CPU      0.37s WALL (   35628 calls)

     Parallel routines

     PWSCF        :      2.04s CPU      2.26s WALL


   This run was terminated on:  22: 2:42   4Nov2024            

=------------------------------------------------------------------------------=
   JOB DONE.
=------------------------------------------------------------------------------=
