
     Program PWSCF v.7.3.1 starts on  4Nov2024 at 22: 1:32 

     This program is part of the open-source Quantum ESPRESSO suite
     for quantum simulation of materials; please cite
         "P. Giannozzi et al., J. Phys.:Condens. Matter 21 395502 (2009);
         "P. Giannozzi et al., J. Phys.:Condens. Matter 29 465901 (2017);
         "P. Giannozzi et al., J. Chem. Phys. 152 154105 (2020);
          URL http://www.quantum-espresso.org", 
     in publications or presentations arising from this work. More details at
     http://www.quantum-espresso.org/quote

     Parallel version (MPI), running on     1 processors

     MPI processes distributed on     1 nodes
     11851 MiB available memory on the printing compute node when the environment starts

     Waiting for input...
     Reading input from standard input

     Current dimensions of program PWSCF are:
     Max number of different atomic species (ntypx) = 10
     Max number of k-points (npk) =  40000
     Max angular momentum in pseudopotentials (lmaxx) =  4

     Subspace diagonalization in iterative solution of the eigenvalue problem:
     a serial algorithm will be used


     G-vector sticks info
     --------------------
     sticks:   dense  smooth     PW     G-vecs:    dense   smooth      PW
     Sum         163     163     61                 1291     1291     331

     Using Slab Decomposition



     bravais-lattice index     =            2
     lattice parameter (alat)  =       7.5400  a.u.
     unit-cell volume          =     107.1653 (a.u.)^3
     number of atoms/cell      =            1
     number of atomic types    =            1
     number of electrons       =        10.00
     number of Kohn-Sham states=           10
     kinetic-energy cutoff     =      20.0000  Ry
     charge density cutoff     =      80.0000  Ry
     scf convergence threshold =      1.0E-08
     mixing beta               =       0.7000
     number of iterations used =            8  plain     mixing
     Exchange-correlation=  SLA  PZ   NOGX NOGC
                           (   1   1   0   0   0   0   0)
     Non magnetic calculation with spin-orbit


     celldm(1)=   7.540000  celldm(2)=   0.000000  celldm(3)=   0.000000
     celldm(4)=   0.000000  celldm(5)=   0.000000  celldm(6)=   0.000000

     crystal axes: (cart. coord. in units of alat)
               a(1) = (  -0.500000   0.000000   0.500000 )  
               a(2) = (   0.000000   0.500000   0.500000 )  
               a(3) = (  -0.500000   0.500000   0.000000 )  

     reciprocal axes: (cart. coord. in units 2 pi/alat)
               b(1) = ( -1.000000 -1.000000  1.000000 )  
               b(2) = (  1.000000  1.000000  1.000000 )  
               b(3) = ( -1.000000  1.000000 -1.000000 )  


     PseudoPot. # 1 for Pt read from file:
     /home/dashlander/Desktop/Sem7/CPD/Assignment_3/pseudo/Pt.rel-pz-n-rrkjus.UPF
     MD5 check sum: 4baafe8ec1942611396c7a5466f52249
     Pseudo is Ultrasoft + core correction, Zval = 10.0
     Generated by new atomic code, or converted to UPF format
     Using radial grid of 1277 points,  6 beta functions with: 
                l(1) =   2
                l(2) =   2
                l(3) =   2
                l(4) =   2
                l(5) =   1
                l(6) =   1
     Q(r) pseudized with 0 coefficients 


     atomic species   valence    mass     pseudopotential
     Pt               10.00   195.08400     Pt( 1.00)

     48 Sym. Ops., with inversion, found



   Cartesian axes

     site n.     atom                  positions (alat units)
         1        Pt     tau(   1) = (   0.0000000   0.0000000   0.0000000  )

     number of k points=    35
                       cart. coord. in units 2pi/alat
        k(    1) = (   0.0000000   0.0000000   0.0000000), wk =   0.0013717
        k(    2) = (  -0.1111111   0.1111111  -0.1111111), wk =   0.0109739
        k(    3) = (  -0.2222222   0.2222222  -0.2222222), wk =   0.0109739
        k(    4) = (  -0.3333333   0.3333333  -0.3333333), wk =   0.0109739
        k(    5) = (  -0.4444444   0.4444444  -0.4444444), wk =   0.0109739
        k(    6) = (   0.0000000   0.2222222   0.0000000), wk =   0.0082305
        k(    7) = (  -0.1111111   0.3333333  -0.1111111), wk =   0.0329218
        k(    8) = (  -0.2222222   0.4444444  -0.2222222), wk =   0.0329218
        k(    9) = (  -0.3333333   0.5555556  -0.3333333), wk =   0.0329218
        k(   10) = (   0.5555556  -0.3333333   0.5555556), wk =   0.0329218
        k(   11) = (   0.4444444  -0.2222222   0.4444444), wk =   0.0329218
        k(   12) = (   0.3333333  -0.1111111   0.3333333), wk =   0.0329218
        k(   13) = (   0.2222222  -0.0000000   0.2222222), wk =   0.0164609
        k(   14) = (   0.0000000   0.4444444   0.0000000), wk =   0.0082305
        k(   15) = (  -0.1111111   0.5555556  -0.1111111), wk =   0.0329218
        k(   16) = (  -0.2222222   0.6666667  -0.2222222), wk =   0.0329218
        k(   17) = (   0.6666667  -0.2222222   0.6666667), wk =   0.0329218
        k(   18) = (   0.5555556  -0.1111111   0.5555556), wk =   0.0329218
        k(   19) = (   0.4444444   0.0000000   0.4444444), wk =   0.0164609
        k(   20) = (   0.0000000   0.6666667   0.0000000), wk =   0.0082305
        k(   21) = (  -0.1111111   0.7777778  -0.1111111), wk =   0.0329218
        k(   22) = (   0.7777778  -0.1111111   0.7777778), wk =   0.0329218
        k(   23) = (   0.6666667  -0.0000000   0.6666667), wk =   0.0164609
        k(   24) = (   0.0000000   0.8888889   0.0000000), wk =   0.0082305
        k(   25) = (   0.8888889   0.0000000   0.8888889), wk =   0.0164609
        k(   26) = (  -0.2222222   0.4444444   0.0000000), wk =   0.0329218
        k(   27) = (  -0.3333333   0.5555556  -0.1111111), wk =   0.0658436
        k(   28) = (   0.5555556  -0.3333333   0.7777778), wk =   0.0658436
        k(   29) = (  -0.2222222   0.6666667   0.0000000), wk =   0.0329218
        k(   30) = (   0.6666667  -0.2222222   0.8888889), wk =   0.0658436
        k(   31) = (   0.5555556  -0.1111111   0.7777778), wk =   0.0658436
        k(   32) = (   0.4444444   0.0000000   0.6666667), wk =   0.0329218
        k(   33) = (   0.7777778  -0.1111111   1.0000000), wk =   0.0329218
        k(   34) = (   0.6666667  -0.0000000   0.8888889), wk =   0.0329218
        k(   35) = (   0.5555556  -0.1111111   1.0000000), wk =   0.0329218

     Dense  grid:     1291 G-vectors     FFT dimensions: (  15,  15,  15)

     Estimated max dynamical RAM per process >      12.46 MB

     Check: negative core charge=   -0.000067

     Initial potential from superposition of free atoms

     starting charge       9.9999, renormalised to      10.0000

     negative rho (up, down):  1.796E-04 0.000E+00
     Starting wfcs are   12 randomized atomic wfcs

     total cpu time spent up to now is        0.4 secs

     Self-consistent Calculation

     iteration #  1     ecut=    20.00 Ry     beta= 0.70
     Davidson diagonalization with overlap
     ethr =  1.00E-02,  avg # of iterations =  2.1

     Threshold (ethr) on eigenvalues was too large:
     Diagonalizing with lowered threshold

     Davidson diagonalization with overlap
     ethr =  2.52E-05,  avg # of iterations =  7.0

     negative rho (up, down):  2.633E-04 0.000E+00

     total cpu time spent up to now is        1.0 secs

     total energy              =     -69.45612904 Ry
     estimated scf accuracy    <       0.00373269 Ry

     iteration #  2     ecut=    20.00 Ry     beta= 0.70
     Davidson diagonalization with overlap
     ethr =  3.73E-05,  avg # of iterations =  2.1

     negative rho (up, down):  2.870E-04 0.000E+00

     total cpu time spent up to now is        1.2 secs

     total energy              =     -69.45710336 Ry
     estimated scf accuracy    <       0.00046540 Ry

     iteration #  3     ecut=    20.00 Ry     beta= 0.70
     Davidson diagonalization with overlap
     ethr =  4.65E-06,  avg # of iterations =  2.0

     negative rho (up, down):  3.048E-04 0.000E+00

     total cpu time spent up to now is        1.4 secs

     total energy              =     -69.45717929 Ry
     estimated scf accuracy    <       0.00001419 Ry

     iteration #  4     ecut=    20.00 Ry     beta= 0.70
     Davidson diagonalization with overlap
     c_bands:  1 eigenvalues not converged
     ethr =  1.42E-07,  avg # of iterations =  6.6

     negative rho (up, down):  3.048E-04 0.000E+00

     total cpu time spent up to now is        1.7 secs

     total energy              =     -69.45722585 Ry
     estimated scf accuracy    <       0.00000088 Ry

     iteration #  5     ecut=    20.00 Ry     beta= 0.70
     Davidson diagonalization with overlap
     ethr =  8.77E-09,  avg # of iterations =  4.0

     negative rho (up, down):  3.054E-04 0.000E+00

     total cpu time spent up to now is        1.9 secs

     total energy              =     -69.45722585 Ry
     estimated scf accuracy    <       0.00000087 Ry

     iteration #  6     ecut=    20.00 Ry     beta= 0.70
     Davidson diagonalization with overlap
     ethr =  8.71E-09,  avg # of iterations =  3.9

     negative rho (up, down):  3.054E-04 0.000E+00

     total cpu time spent up to now is        2.2 secs

     total energy              =     -69.45722575 Ry
     estimated scf accuracy    <       0.00000340 Ry

     iteration #  7     ecut=    20.00 Ry     beta= 0.70
     Davidson diagonalization with overlap
     ethr =  8.71E-09,  avg # of iterations =  2.3

     negative rho (up, down):  3.054E-04 0.000E+00

     total cpu time spent up to now is        2.4 secs

     total energy              =     -69.45722593 Ry
     estimated scf accuracy    <       0.00000049 Ry

     iteration #  8     ecut=    20.00 Ry     beta= 0.70
     Davidson diagonalization with overlap
     ethr =  4.92E-09,  avg # of iterations =  1.7

     negative rho (up, down):  3.054E-04 0.000E+00

     total cpu time spent up to now is        2.6 secs

     total energy              =     -69.45722597 Ry
     estimated scf accuracy    <       0.00000021 Ry

     iteration #  9     ecut=    20.00 Ry     beta= 0.70
     Davidson diagonalization with overlap
     ethr =  2.07E-09,  avg # of iterations =  1.7

     negative rho (up, down):  3.056E-04 0.000E+00

     total cpu time spent up to now is        2.7 secs

     total energy              =     -69.45724594 Ry
     estimated scf accuracy    <       0.00000536 Ry

     iteration # 10     ecut=    20.00 Ry     beta= 0.70
     Davidson diagonalization with overlap
     ethr =  2.07E-09,  avg # of iterations =  4.6

     negative rho (up, down):  3.053E-04 0.000E+00

     total cpu time spent up to now is        3.0 secs

     total energy              =     -69.45724926 Ry
     estimated scf accuracy    <       0.00000061 Ry

     iteration # 11     ecut=    20.00 Ry     beta= 0.70
     Davidson diagonalization with overlap
     ethr =  2.07E-09,  avg # of iterations =  5.6

     negative rho (up, down):  3.053E-04 0.000E+00

     total cpu time spent up to now is        3.4 secs

     total energy              =     -69.45725290 Ry
     estimated scf accuracy    <       0.00001281 Ry

     iteration # 12     ecut=    20.00 Ry     beta= 0.70
     Davidson diagonalization with overlap
     ethr =  2.07E-09,  avg # of iterations =  2.6

     negative rho (up, down):  3.054E-04 0.000E+00

     total cpu time spent up to now is        3.6 secs

     total energy              =     -69.45724417 Ry
     estimated scf accuracy    <       0.00001822 Ry

     iteration # 13     ecut=    20.00 Ry     beta= 0.70
     Davidson diagonalization with overlap
     ethr =  2.07E-09,  avg # of iterations =  5.9

     negative rho (up, down):  3.053E-04 0.000E+00

     total cpu time spent up to now is        3.9 secs

     total energy              =     -69.45724847 Ry
     estimated scf accuracy    <       0.00000059 Ry

     iteration # 14     ecut=    20.00 Ry     beta= 0.70
     Davidson diagonalization with overlap
     ethr =  2.07E-09,  avg # of iterations =  4.7

     negative rho (up, down):  3.054E-04 0.000E+00

     total cpu time spent up to now is        4.3 secs

     total energy              =     -69.45724696 Ry
     estimated scf accuracy    <       0.00000827 Ry

     iteration # 15     ecut=    20.00 Ry     beta= 0.70
     Davidson diagonalization with overlap
     ethr =  2.07E-09,  avg # of iterations =  3.6

     negative rho (up, down):  3.054E-04 0.000E+00

     total cpu time spent up to now is        4.5 secs

     total energy              =     -69.45724575 Ry
     estimated scf accuracy    <       0.00000271 Ry

     iteration # 16     ecut=    20.00 Ry     beta= 0.70
     Davidson diagonalization with overlap
     ethr =  2.07E-09,  avg # of iterations =  4.3

     negative rho (up, down):  3.054E-04 0.000E+00

     total cpu time spent up to now is        4.8 secs

     End of self-consistent calculation

          k = 0.0000 0.0000 0.0000 (   169 PWs)   bands (ev):

     6.5943   6.5943  12.4453  12.4453  12.4453  12.4453  13.4478  13.4478
    15.0720  15.0720

          k =-0.1111 0.1111-0.1111 (   168 PWs)   bands (ev):

     7.0553   7.0553  12.4045  12.4045  12.5392  12.5392  13.5486  13.5486
    14.9185  14.9185

          k =-0.2222 0.2222-0.2222 (   162 PWs)   bands (ev):

     8.2414   8.2414  12.3287  12.3287  12.6145  12.6145  13.8098  13.8098
    14.8213  14.8213

          k =-0.3333 0.3333-0.3333 (   153 PWs)   bands (ev):

     9.2776   9.2776  12.4678  12.4678  13.1489  13.1489  13.5992  13.5992
    15.5042  15.5042

          k =-0.4444 0.4444-0.4444 (   162 PWs)   bands (ev):

     9.4988   9.4988  12.2999  12.2999  13.3178  13.3178  15.2722  15.2722
    16.1516  16.1516

          k = 0.0000 0.2222 0.0000 (   165 PWs)   bands (ev):

     7.2113   7.2113  12.2562  12.2562  12.6835  12.6835  13.6160  13.6160
    14.7332  14.7332

          k =-0.1111 0.3333-0.1111 (   162 PWs)   bands (ev):

     8.1830   8.1830  12.0098  12.0098  12.8130  12.8130  13.9426  13.9426
    14.5692  14.5692

          k =-0.2222 0.4444-0.2222 (   158 PWs)   bands (ev):

     9.4012   9.4012  12.1715  12.1715  12.6225  12.6225  13.8171  13.8171
    15.3792  15.3792

          k =-0.3333 0.5556-0.3333 (   160 PWs)   bands (ev):

     9.8313   9.8313  12.2994  12.2994  13.2798  13.2798  13.7826  13.7826
    16.3901  16.3901

          k = 0.5556-0.3333 0.5556 (   162 PWs)   bands (ev):

     9.8646   9.8646  12.2303  12.2303  13.3165  13.3165  14.4110  14.4110
    16.3399  16.3399

          k = 0.4444-0.2222 0.4444 (   161 PWs)   bands (ev):

     9.8072   9.8072  12.3720  12.3720  13.1873  13.1873  13.5651  13.5651
    15.5587  15.5587

          k = 0.3333-0.1111 0.3333 (   161 PWs)   bands (ev):

     9.0580   9.0580  12.1140  12.1140  12.6961  12.6961  13.8910  13.8910
    14.6562  14.6562

          k = 0.2222-0.0000 0.2222 (   160 PWs)   bands (ev):

     7.7802   7.7802  12.2091  12.2091  12.6970  12.6970  13.7811  13.7811
    14.6068  14.6068

          k = 0.0000 0.4444 0.0000 (   165 PWs)   bands (ev):

     8.8095   8.8095  11.5575  11.5575  13.0717  13.0717  14.4048  14.4048
    14.4679  14.4679

          k =-0.1111 0.5556-0.1111 (   160 PWs)   bands (ev):

     9.7983   9.7983  11.2834  11.2834  12.9364  12.9364  14.5690  14.5690
    15.3965  15.3965

          k =-0.2222 0.6667-0.2222 (   159 PWs)   bands (ev):

    10.3770  10.3770  11.6186  11.6186  12.7513  12.7513  14.3636  14.3636
    16.5020  16.5020

          k = 0.6667-0.2222 0.6667 (   162 PWs)   bands (ev):

    10.5754  10.5754  11.8498  11.8498  13.0651  13.0651  14.1513  14.1513
    16.4093  16.4093

          k = 0.5556-0.1111 0.5556 (   164 PWs)   bands (ev):

    10.7802  10.7802  12.0047  12.0047  12.7502  12.7502  13.9714  13.9714
    15.5980  15.5980

          k = 0.4444 0.0000 0.4444 (   158 PWs)   bands (ev):

    10.3416  10.3416  11.8856  11.8856  12.5162  12.5162  14.0128  14.0128
    14.7371  14.7371

          k = 0.0000 0.6667 0.0000 (   170 PWs)   bands (ev):

     9.9517   9.9517  10.7669  10.7669  14.0656  14.0656  15.5012  15.5012
    15.5138  15.5138

          k =-0.1111 0.7778-0.1111 (   164 PWs)   bands (ev):

    10.1360  10.1360  10.6596  10.6596  14.2856  14.2856  15.5598  15.5598
    16.5893  16.5893

          k = 0.7778-0.1111 0.7778 (   166 PWs)   bands (ev):

    10.4313  10.4313  11.0966  11.0966  13.7452  13.7452  15.1920  15.1920
    16.6117  16.6117

          k = 0.6667-0.0000 0.6667 (   164 PWs)   bands (ev):

    10.8867  10.8867  11.7186  11.7186  12.9123  12.9123  14.6543  14.6543
    16.0045  16.0045

          k = 0.0000 0.8889 0.0000 (   162 PWs)   bands (ev):

     9.8051   9.8051  10.2870  10.2870  16.1335  16.1335  16.2500  16.2500
    17.3119  17.3119

          k = 0.8889 0.0000 0.8889 (   166 PWs)   bands (ev):

     9.9588   9.9588  10.4199  10.4199  15.3597  15.3597  16.0255  16.0255
    17.0016  17.0016

          k =-0.2222 0.4444 0.0000 (   164 PWs)   bands (ev):

     9.2646   9.2646  11.7009  11.7009  12.7535  12.7535  14.3360  14.3360
    14.5314  14.5314

          k =-0.3333 0.5556-0.1111 (   157 PWs)   bands (ev):

    10.3106  10.3106  11.9181  11.9181  12.3819  12.3819  14.1539  14.1539
    15.4352  15.4352

          k = 0.5556-0.3333 0.7778 (   165 PWs)   bands (ev):

    10.4803  10.4803  11.9708  11.9708  13.0214  13.0214  13.9908  13.9908
    16.2301  16.2301

          k =-0.2222 0.6667 0.0000 (   159 PWs)   bands (ev):

    10.4296  10.4296  11.0561  11.0561  12.9517  12.9517  15.3232  15.3232
    15.5822  15.5822

          k = 0.6667-0.2222 0.8889 (   161 PWs)   bands (ev):

    10.7775  10.7775  11.3705  11.3705  12.7760  12.7760  14.9773  14.9773
    16.3733  16.3733

          k = 0.5556-0.1111 0.7778 (   164 PWs)   bands (ev):

    11.1166  11.1166  11.6007  11.6007  12.6269  12.6269  14.5846  14.5846
    16.2881  16.2881

          k = 0.4444 0.0000 0.6667 (   161 PWs)   bands (ev):

    11.3650  11.3650  11.7098  11.7098  11.9934  11.9934  14.5859  14.5859
    15.6344  15.6344

          k = 0.7778-0.1111 1.0000 (   163 PWs)   bands (ev):

    10.2439  10.2439  10.6498  10.6498  14.3035  14.3035  15.8113  15.8113
    16.8083  16.8083

          k = 0.6667-0.0000 0.8889 (   166 PWs)   bands (ev):

    10.6368  10.6368  11.1577  11.1577  13.4475  13.4475  15.1648  15.1648
    16.7643  16.7643

          k = 0.5556-0.1111 1.0000 (   161 PWs)   bands (ev):

    11.0707  11.0707  11.6956  11.6956  12.3902  12.3902  14.8172  14.8172
    16.7310  16.7310

     highest occupied level (ev):    17.3119

!    total energy              =     -69.45724633 Ry
     estimated scf accuracy    <          3.1E-10 Ry

     The total energy is the sum of the following terms:
     one-electron contribution =      15.77390716 Ry
     hartree contribution      =       4.07314275 Ry
     xc contribution           =     -28.49710689 Ry
     ewald contribution        =     -60.80718934 Ry

     convergence has been achieved in  16 iterations

     negative rho (up, down):  3.054E-04 0.000E+00

     Forces acting on atoms (cartesian axes, Ry/au):

     atom    1 type  1   force =     0.00000000    0.00000000    0.00000000

     Total force =     0.000000     Total SCF correction =     0.000000


     Computing stress (Cartesian axis) and pressure


     negative rho (up, down):  3.054E-04 0.000E+00
          total   stress  (Ry/bohr**3)                   (kbar)     P=      -67.94
  -0.00046188  -0.00000000  -0.00000000          -67.94       -0.00       -0.00
  -0.00000000  -0.00046188   0.00000000           -0.00      -67.94        0.00
  -0.00000000   0.00000000  -0.00046188           -0.00        0.00      -67.94


     Writing all to output data dir ./platinum.save/ :
     XML data file, charge density, pseudopotentials, collected wavefunctions

     init_run     :      0.26s CPU      0.28s WALL (       1 calls)
     electrons    :      4.02s CPU      4.43s WALL (       1 calls)
     forces       :      0.04s CPU      0.04s WALL (       1 calls)
     stress       :      0.17s CPU      0.17s WALL (       1 calls)

     Called by init_run:
     wfcinit      :      0.06s CPU      0.08s WALL (       1 calls)
     potinit      :      0.01s CPU      0.01s WALL (       1 calls)
     hinit0       :      0.17s CPU      0.18s WALL (       1 calls)

     Called by electrons:
     c_bands      :      3.21s CPU      3.56s WALL (      17 calls)
     sum_band     :      0.62s CPU      0.67s WALL (      17 calls)
     v_of_rho     :      0.00s CPU      0.00s WALL (      17 calls)
     newd         :      0.20s CPU      0.20s WALL (      17 calls)
     mix_rho      :      0.01s CPU      0.01s WALL (      17 calls)

     Called by c_bands:
     init_us_2    :      0.05s CPU      0.05s WALL (    1295 calls)
     cegterg      :      3.01s CPU      3.35s WALL (     595 calls)

     Called by *egterg:
     cdiaghg      :      0.19s CPU      0.21s WALL (    2831 calls)
     h_psi        :      1.72s CPU      1.92s WALL (    2901 calls)
     s_psi        :      0.28s CPU      0.31s WALL (    2901 calls)
     g_psi        :      0.03s CPU      0.03s WALL (    2271 calls)

     Called by h_psi:
     h_psi:calbec :      0.22s CPU      0.25s WALL (    2901 calls)
     vloc_psi     :      1.18s CPU      1.32s WALL (    2901 calls)
     add_vuspsi   :      0.28s CPU      0.31s WALL (    2901 calls)

     General routines
     calbec       :      0.29s CPU      0.32s WALL (    3671 calls)
     fft          :      0.02s CPU      0.03s WALL (     179 calls)
     ffts         :      0.00s CPU      0.00s WALL (      68 calls)
     fftw         :      0.88s CPU      0.99s WALL (   99864 calls)

     Parallel routines

     PWSCF        :      4.59s CPU      5.02s WALL


   This run was terminated on:  22: 1:37   4Nov2024            

=------------------------------------------------------------------------------=
   JOB DONE.
=------------------------------------------------------------------------------=
