
     Program PWSCF v.7.3.1 starts on  4Nov2024 at 13:51:24 

     This program is part of the open-source Quantum ESPRESSO suite
     for quantum simulation of materials; please cite
         "P. Giannozzi et al., J. Phys.:Condens. Matter 21 395502 (2009);
         "P. Giannozzi et al., J. Phys.:Condens. Matter 29 465901 (2017);
         "P. Giannozzi et al., J. Chem. Phys. 152 154105 (2020);
          URL http://www.quantum-espresso.org", 
     in publications or presentations arising from this work. More details at
     http://www.quantum-espresso.org/quote

     Parallel version (MPI), running on     1 processors

     MPI processes distributed on     1 nodes
     14440 MiB available memory on the printing compute node when the environment starts

     Waiting for input...
     Reading input from standard input

     Current dimensions of program PWSCF are:
     Max number of different atomic species (ntypx) = 10
     Max number of k-points (npk) =  40000
     Max angular momentum in pseudopotentials (lmaxx) =  4

     Subspace diagonalization in iterative solution of the eigenvalue problem:
     a serial algorithm will be used


     G-vector sticks info
     --------------------
     sticks:   dense  smooth     PW     G-vecs:    dense   smooth      PW
     Sum         151     151     55                 1243     1243     283

     Using Slab Decomposition



     bravais-lattice index     =            2
     lattice parameter (alat)  =       7.3700  a.u.
     unit-cell volume          =     100.0789 (a.u.)^3
     number of atoms/cell      =            1
     number of atomic types    =            1
     number of electrons       =        10.00
     number of Kohn-Sham states=           10
     kinetic-energy cutoff     =      20.0000  Ry
     charge density cutoff     =      80.0000  Ry
     scf convergence threshold =      1.0E-08
     mixing beta               =       0.7000
     number of iterations used =            8  plain     mixing
     Exchange-correlation=  SLA  PZ   NOGX NOGC
                           (   1   1   0   0   0   0   0)
     Non magnetic calculation with spin-orbit


     celldm(1)=   7.370000  celldm(2)=   0.000000  celldm(3)=   0.000000
     celldm(4)=   0.000000  celldm(5)=   0.000000  celldm(6)=   0.000000

     crystal axes: (cart. coord. in units of alat)
               a(1) = (  -0.500000   0.000000   0.500000 )  
               a(2) = (   0.000000   0.500000   0.500000 )  
               a(3) = (  -0.500000   0.500000   0.000000 )  

     reciprocal axes: (cart. coord. in units 2 pi/alat)
               b(1) = ( -1.000000 -1.000000  1.000000 )  
               b(2) = (  1.000000  1.000000  1.000000 )  
               b(3) = ( -1.000000  1.000000 -1.000000 )  


     PseudoPot. # 1 for Pt read from file:
     /home/dashlander/Desktop/Sem7/CPD/Assignment_3/pseudo/Pt.rel-pz-n-rrkjus.UPF
     MD5 check sum: 4baafe8ec1942611396c7a5466f52249
     Pseudo is Ultrasoft + core correction, Zval = 10.0
     Generated by new atomic code, or converted to UPF format
     Using radial grid of 1277 points,  6 beta functions with: 
                l(1) =   2
                l(2) =   2
                l(3) =   2
                l(4) =   2
                l(5) =   1
                l(6) =   1
     Q(r) pseudized with 0 coefficients 


     atomic species   valence    mass     pseudopotential
     Pt               10.00   195.08400     Pt( 1.00)

     48 Sym. Ops., with inversion, found



   Cartesian axes

     site n.     atom                  positions (alat units)
         1        Pt     tau(   1) = (   0.0000000   0.0000000   0.0000000  )

     number of k points=     6
                       cart. coord. in units 2pi/alat
        k(    1) = (  -0.1666667   0.1666667   0.1666667), wk =   0.0740741
        k(    2) = (   0.5000000  -0.5000000   0.8333333), wk =   0.2222222
        k(    3) = (   0.1666667  -0.1666667   0.5000000), wk =   0.2222222
        k(    4) = (  -0.1666667  -1.1666667   0.1666667), wk =   0.2222222
        k(    5) = (  -0.5000000  -0.8333333  -0.1666667), wk =   0.2222222
        k(    6) = (   0.5000000  -0.5000000  -0.5000000), wk =   0.0370370

     Dense  grid:     1243 G-vectors     FFT dimensions: (  15,  15,  15)

     Estimated max dynamical RAM per process >      10.66 MB

     Check: negative core charge=   -0.000029

     Initial potential from superposition of free atoms

     starting charge       9.9999, renormalised to      10.0000

     negative rho (up, down):  1.043E-04 0.000E+00
     Starting wfcs are   12 randomized atomic wfcs

     total cpu time spent up to now is        0.3 secs

     Self-consistent Calculation

     iteration #  1     ecut=    20.00 Ry     beta= 0.70
     Davidson diagonalization with overlap
     ethr =  1.00E-02,  avg # of iterations =  2.2

     Threshold (ethr) on eigenvalues was too large:
     Diagonalizing with lowered threshold

     Davidson diagonalization with overlap
     ethr =  2.57E-05,  avg # of iterations =  6.3

     negative rho (up, down):  1.957E-04 0.000E+00

     total cpu time spent up to now is        0.4 secs

     total energy              =     -69.44776657 Ry
     estimated scf accuracy    <       0.00213723 Ry

     iteration #  2     ecut=    20.00 Ry     beta= 0.70
     Davidson diagonalization with overlap
     ethr =  2.14E-05,  avg # of iterations =  2.2

     negative rho (up, down):  2.213E-04 0.000E+00

     total cpu time spent up to now is        0.5 secs

     total energy              =     -69.44819510 Ry
     estimated scf accuracy    <       0.00018686 Ry

     iteration #  3     ecut=    20.00 Ry     beta= 0.70
     Davidson diagonalization with overlap
     c_bands:  1 eigenvalues not converged
     ethr =  1.87E-06,  avg # of iterations =  5.0

     negative rho (up, down):  2.337E-04 0.000E+00

     total cpu time spent up to now is        0.5 secs

     total energy              =     -69.45495141 Ry
     estimated scf accuracy    <       0.00092134 Ry

     iteration #  4     ecut=    20.00 Ry     beta= 0.70
     Davidson diagonalization with overlap
     ethr =  1.87E-06,  avg # of iterations =  3.8

     negative rho (up, down):  2.378E-04 0.000E+00

     total cpu time spent up to now is        0.6 secs

     total energy              =     -69.45488923 Ry
     estimated scf accuracy    <       0.00022673 Ry

     iteration #  5     ecut=    20.00 Ry     beta= 0.70
     Davidson diagonalization with overlap
     ethr =  1.87E-06,  avg # of iterations =  2.5

     negative rho (up, down):  2.379E-04 0.000E+00

     total cpu time spent up to now is        0.6 secs

     total energy              =     -69.45496454 Ry
     estimated scf accuracy    <       0.00000900 Ry

     iteration #  6     ecut=    20.00 Ry     beta= 0.70
     Davidson diagonalization with overlap
     ethr =  9.00E-08,  avg # of iterations =  5.2

     negative rho (up, down):  2.378E-04 0.000E+00

     total cpu time spent up to now is        0.7 secs

     total energy              =     -69.45497691 Ry
     estimated scf accuracy    <       0.00000746 Ry

     iteration #  7     ecut=    20.00 Ry     beta= 0.70
     Davidson diagonalization with overlap
     ethr =  7.46E-08,  avg # of iterations =  1.2

     negative rho (up, down):  2.377E-04 0.000E+00

     total cpu time spent up to now is        0.7 secs

     total energy              =     -69.45497661 Ry
     estimated scf accuracy    <       0.00000269 Ry

     iteration #  8     ecut=    20.00 Ry     beta= 0.70
     Davidson diagonalization with overlap
     ethr =  2.69E-08,  avg # of iterations =  2.8

     negative rho (up, down):  2.377E-04 0.000E+00

     total cpu time spent up to now is        0.8 secs

     total energy              =     -69.45497639 Ry
     estimated scf accuracy    <       0.00000137 Ry

     iteration #  9     ecut=    20.00 Ry     beta= 0.70
     Davidson diagonalization with overlap
     ethr =  1.37E-08,  avg # of iterations =  2.5

     negative rho (up, down):  2.377E-04 0.000E+00

     total cpu time spent up to now is        0.8 secs

     total energy              =     -69.45497655 Ry
     estimated scf accuracy    <       0.00000020 Ry

     iteration # 10     ecut=    20.00 Ry     beta= 0.70
     Davidson diagonalization with overlap
     ethr =  1.98E-09,  avg # of iterations =  3.7

     negative rho (up, down):  2.377E-04 0.000E+00

     total cpu time spent up to now is        0.9 secs

     total energy              =     -69.45497660 Ry
     estimated scf accuracy    <       0.00000011 Ry

     iteration # 11     ecut=    20.00 Ry     beta= 0.70
     Davidson diagonalization with overlap
     ethr =  1.06E-09,  avg # of iterations =  1.0

     negative rho (up, down):  2.378E-04 0.000E+00

     total cpu time spent up to now is        0.9 secs

     total energy              =     -69.45497656 Ry
     estimated scf accuracy    <       0.00000015 Ry

     iteration # 12     ecut=    20.00 Ry     beta= 0.70
     Davidson diagonalization with overlap
     ethr =  1.06E-09,  avg # of iterations =  1.0

     negative rho (up, down):  2.378E-04 0.000E+00

     total cpu time spent up to now is        0.9 secs

     total energy              =     -69.45497655 Ry
     estimated scf accuracy    <       0.00000005 Ry

     iteration # 13     ecut=    20.00 Ry     beta= 0.70
     Davidson diagonalization with overlap
     ethr =  4.68E-10,  avg # of iterations =  2.0

     negative rho (up, down):  2.378E-04 0.000E+00

     total cpu time spent up to now is        1.0 secs

     total energy              =     -69.45497655 Ry
     estimated scf accuracy    <       0.00000001 Ry

     iteration # 14     ecut=    20.00 Ry     beta= 0.70
     Davidson diagonalization with overlap
     ethr =  1.12E-10,  avg # of iterations =  3.7

     negative rho (up, down):  2.378E-04 0.000E+00

     total cpu time spent up to now is        1.0 secs

     End of self-consistent calculation

          k =-0.1667 0.1667 0.1667 (   153 PWs)   bands (ev):

     8.6240   8.6240  13.6013  13.6013  13.9228  13.9228  15.0143  15.0143
    16.2730  16.2730

          k = 0.5000-0.5000 0.8333 (   153 PWs)   bands (ev):

    11.3822  11.3822  13.4651  13.4651  14.2782  14.2782  15.0256  15.0256
    17.1018  17.1018

          k = 0.1667-0.1667 0.5000 (   150 PWs)   bands (ev):

    10.7262  10.7262  12.8620  12.8620  13.9970  13.9970  15.4970  15.4970
    16.9528  16.9528

          k =-0.1667-1.1667 0.1667 (   152 PWs)   bands (ev):

    11.2935  11.2935  11.8964  11.8964  15.4737  15.4737  16.9474  16.9474
    18.4386  18.4386

          k =-0.5000-0.8333-0.1667 (   150 PWs)   bands (ev):

    12.4226  12.4226  12.6178  12.6178  13.7861  13.7861  15.9995  15.9995
    18.0368  18.0368

          k = 0.5000-0.5000-0.5000 (   156 PWs)   bands (ev):

    10.5161  10.5161  13.5464  13.5464  14.5501  14.5501  17.3298  17.3298
    17.8452  17.8452

     highest occupied level (ev):    18.4386

!    total energy              =     -69.45497655 Ry
     estimated scf accuracy    <          8.0E-09 Ry

     The total energy is the sum of the following terms:
     one-electron contribution =      17.66215679 Ry
     hartree contribution      =       3.65871221 Ry
     xc contribution           =     -28.56604805 Ry
     ewald contribution        =     -62.20979750 Ry

     convergence has been achieved in  14 iterations

     negative rho (up, down):  2.378E-04 0.000E+00

     Forces acting on atoms (cartesian axes, Ry/au):

     atom    1 type  1   force =     0.00000000    0.00000000    0.00000000

     Total force =     0.000000     Total SCF correction =     0.000000


     Computing stress (Cartesian axis) and pressure


     negative rho (up, down):  2.378E-04 0.000E+00
          total   stress  (Ry/bohr**3)                   (kbar)     P=      121.00
   0.00082255   0.00000000  -0.00000000          121.00        0.00       -0.00
   0.00000000   0.00082255  -0.00000000            0.00      121.00       -0.00
  -0.00000000   0.00000000   0.00082255           -0.00        0.00      121.00


     Writing all to output data dir ./platinum.save/ :
     XML data file, charge density, pseudopotentials, collected wavefunctions

     init_run     :      0.19s CPU      0.22s WALL (       1 calls)
     electrons    :      0.66s CPU      0.71s WALL (       1 calls)
     forces       :      0.01s CPU      0.01s WALL (       1 calls)
     stress       :      0.08s CPU      0.08s WALL (       1 calls)

     Called by init_run:
     wfcinit      :      0.02s CPU      0.03s WALL (       1 calls)
     potinit      :      0.01s CPU      0.01s WALL (       1 calls)
     hinit0       :      0.15s CPU      0.17s WALL (       1 calls)

     Called by electrons:
     c_bands      :      0.34s CPU      0.38s WALL (      15 calls)
     sum_band     :      0.16s CPU      0.17s WALL (      15 calls)
     v_of_rho     :      0.00s CPU      0.00s WALL (      15 calls)
     newd         :      0.16s CPU      0.17s WALL (      15 calls)
     mix_rho      :      0.01s CPU      0.01s WALL (      15 calls)

     Called by c_bands:
     init_us_2    :      0.01s CPU      0.01s WALL (     198 calls)
     cegterg      :      0.31s CPU      0.35s WALL (      90 calls)

     Called by *egterg:
     cdiaghg      :      0.02s CPU      0.02s WALL (     354 calls)
     h_psi        :      0.20s CPU      0.23s WALL (     366 calls)
     s_psi        :      0.03s CPU      0.03s WALL (     366 calls)
     g_psi        :      0.00s CPU      0.00s WALL (     270 calls)

     Called by h_psi:
     h_psi:calbec :      0.02s CPU      0.03s WALL (     366 calls)
     vloc_psi     :      0.14s CPU      0.16s WALL (     366 calls)
     add_vuspsi   :      0.03s CPU      0.03s WALL (     366 calls)

     General routines
     calbec       :      0.03s CPU      0.04s WALL (     486 calls)
     fft          :      0.01s CPU      0.03s WALL (     159 calls)
     ffts         :      0.00s CPU      0.00s WALL (      60 calls)
     fftw         :      0.11s CPU      0.13s WALL (   12056 calls)

     Parallel routines

     PWSCF        :      1.04s CPU      1.14s WALL


   This run was terminated on:  13:51:26   4Nov2024            

=------------------------------------------------------------------------------=
   JOB DONE.
=------------------------------------------------------------------------------=
