LAMMPS data file via write_data, version 29 Aug 2024, timestep = 100100, units = real

4349 atoms
7 atom types
3917 bonds
5 bond types
4637 angles
5 angle types
6951 dihedrals
1 dihedral types
1152 impropers
1 improper types

-0.1495 32.8505 xlo xhi
-0.193001 32.806999 ylo yhi
-38.75 41.25 zlo zhi

Masses

1 12.0107
2 12.0107
3 12.0107
4 12.0107
5 1.0079
6 15.9994
7 15.9994

Pair Coeffs # lj/cut

1 0.0859 3.3997
2 0.0559 2.757
3 0.0859 3.3997
4 0.0859 3.3997
5 0 1
6 0.1598 3.033
7 0.1521 3.1507

Bond Coeffs # harmonic

1 938 1.42
2 190.96 1.149
3 938 1.42
4 938 1.42
5 450 0.9572

Angle Coeffs # harmonic

1 126 120
2 126 120
3 126 120
4 55 104.52
5 295.4 180

Atoms # full

3434 1 4 0 1.7702260065035957 0.9831452127974294 -30 0 0 0
3437 4 4 0 2.0848494049807873 3.7919971789925646 -30 0 0 0
3438 5 4 0 4.167493799552706 0.9858086724608133 -30 0 0 0
3439 6 4 0 3.0030944154107306 1.6831425837968739 -30 0 0 0
3440 7 4 0 3.1777636942436076 3.0611135526585818 -30 0 0 0
3441 8 4 0 4.318066028341222 3.695561722836919 -30 0 0 0
3443 10 4 0 5.355456112935788 1.641997043479465 -30 0 0 0
3444 11 4 0 5.428252237059834 2.9822407047978614 -30 0 0 0
3490 57 4 0 1.9383153402684015 5.0927024076278995 -30 0 0 0
3494 61 4 0 4.296285845790543 5.025699251063854 -30 0 0 0
3495 62 4 0 3.1375145305801757 5.716097741314571 -30 0 0 0
3499 66 4 0 5.4619355849618305 5.674032940278165 -30 0 0 0
3435 2 4 0 0.6695838610551923 1.771648841790485 -30 0 0 0
3436 3 4 0 1.5755705414150212 2.6349915496371072 -30 0 0 0
3491 58 4 0 0.7621714549580231 5.7268214230735035 -30 0 0 0
3442 9 4 0 6.51884819968102 0.9738195088870989 -30 0 0 0
3445 12 4 0 6.58742518389075 3.646110186731923 -30 0 0 0
3498 65 4 0 6.598310021425918 4.981981029615656 -30 0 0 0
3446 13 4 0 8.850338786530976 0.9700125243131797 -30 0 0 0
3447 14 4 0 7.692626807724364 1.6345668124380217 -30 0 0 0
3448 15 4 0 7.726083608618547 2.966191440807898 -30 0 0 0
3449 16 4 0 8.878286203219519 3.635339961421358 -30 0 0 0
3450 17 4 0 11.159255807586455 0.9693412214703419 -30 0 0 0
3451 18 4 0 10.007576551638552 1.6376158747493514 -30 0 0 0
3452 19 4 0 10.025431760407507 2.9664572833631113 -30 0 0 0
3453 20 4 0 11.173346393306687 3.637517179384228 -30 0 0 0
3455 22 4 0 12.310093963471488 1.6387881428179023 -30 0 0 0
3456 23 4 0 12.316244295191352 2.9698322618374133 -30 0 0 0
3502 69 4 0 8.898940294438486 4.9656705147682025 -30 0 0 0
3503 70 4 0 7.753665116394329 5.644167679648862 -30 0 0 0
3506 73 4 0 11.188552735142459 4.966854571485907 -30 0 0 0
3507 74 4 0 10.04813721669398 5.639213132802408 -30 0 0 0
3511 78 4 0 12.33654757670993 5.6373096078766896 -30 0 0 0
3454 21 4 0 13.457057940972692 0.9692050083321784 -30 0 0 0
3457 24 4 0 13.467657809854444 3.6411374240366454 -30 0 0 0
3458 25 4 0 15.746032894046737 0.9718473681955178 -30 0 0 0
3459 26 4 0 14.602462097497067 1.643754562481868 -30 0 0 0
3460 27 4 0 14.612246355196485 2.974200274823815 -30 0 0 0
3461 28 4 0 15.751397897168806 3.645223811182384 -30 0 0 0
3462 29 4 0 18.024788426508742 0.969924741337981 -30 0 0 0
3463 30 4 0 16.88653450349527 1.6470485917739344 -30 0 0 0
3464 31 4 0 16.890184696793686 2.9772490591520895 -30 0 0 0
3465 32 4 0 18.030886516595626 3.651644405048746 -30 0 0 0
3467 34 4 0 19.16679293677664 1.6472445128842916 -30 0 0 0
3468 35 4 0 19.166347949068463 2.9779448239273774 -30 0 0 0
3510 77 4 0 13.475855240279099 4.973418759177728 -30 0 0 0
3514 81 4 0 15.763244272034568 4.976319021318958 -30 0 0 0
3515 82 4 0 14.619980519359453 5.646688491564345 -30 0 0 0
3518 85 4 0 18.04440249453151 4.981758092817505 -30 0 0 0
3519 86 4 0 16.905990742409276 5.6506643192753 -30 0 0 0
3523 90 4 0 19.187061405721614 5.65289993343636 -30 0 0 0
3466 33 4 0 20.303370807283528 0.969990406185647 -30 0 0 0
3469 36 4 0 20.310550188089838 3.651172324182581 -30 0 0 0
3470 37 4 0 22.57257030559779 0.9666785874892366 -30 0 0 0
3471 38 4 0 21.436425418648444 1.644753098402088 -30 0 0 0
3472 39 4 0 21.445670311334784 2.9736759846503023 -30 0 0 0
3473 40 4 0 22.5858172320073 3.638765056921054 -30 0 0 0
3474 41 4 0 24.86360962307437 0.9591171565805688 -30 0 0 0
3475 42 4 0 23.720846047280332 1.6374133817823058 -30 0 0 0
3476 43 4 0 23.70945111997062 2.9601831862225283 -30 0 0 0
3477 44 4 0 24.84651506729258 3.62022416947932 -30 0 0 0
3522 89 4 0 20.319965380618573 4.981946014111578 -30 0 0 0
3526 93 4 0 22.589032548966532 4.968708466214972 -30 0 0 0
3527 94 4 0 21.45993537658109 5.652430609081914 -30 0 0 0
3530 97 4 0 24.879897384330487 4.945353591885498 -30 0 0 0
3531 98 4 0 23.751393740201216 5.627834391294775 -30 0 0 0
3479 46 4 0 26.020566960291166 1.599896393094591 -30 0 0 0
3480 47 4 0 25.979336293567542 2.9287800760560927 -30 0 0 0
3535 102 4 0 26.018384858370126 5.599415713120286 -30 0 0 0
3486 53 4 0 31.530942255651837 1.0175428953583552 -30 0 0 0
3489 56 4 0 31.32982185550236 4.866745967881402 -30 0 0 0
3542 109 4 0 31.91224578923131 3.821740022056468 -30 0 0 0
3478 45 4 0 27.185559652335446 0.9471485221373929 -30 0 0 0
3481 48 4 0 27.11526318794464 3.5750531184491616 -30 0 0 0
3482 49 4 0 29.60310662007612 1.1305287512792668 -30 0 0 0
3483 50 4 0 28.339858684193782 1.6006731692872933 -30 0 0 0
3484 51 4 0 28.229031415180476 2.8833787926529117 -30 0 0 0
3485 52 4 0 29.29956036530563 3.5951174432000186 -30 0 0 0
3487 54 4 0 30.644560735113473 2.065427067977613 -30 0 0 0
3488 55 4 0 30.574785103027104 3.5217469475318857 -30 0 0 0
3534 101 4 0 27.129944915017905 4.904416319393515 -30 0 0 0
3538 105 4 0 29.394662593425732 4.792652245909919 -30 0 0 0
3539 106 4 0 28.30504047880683 5.532161040319768 -30 0 0 0
3543 110 4 0 30.747399904958776 4.894581458445157 -30 0 0 0
3544 111 4 0 30.70371455593742 6.3966039894741336 -30 0 0 0
3496 63 4 0 3.21165274116702 7.03527331276963 -30 0 0 0
3500 67 4 0 5.495351632334912 6.998387620945961 -30 0 0 0
3492 59 4 0 0.9604967299958717 7.077648213532874 -30 0 0 0
3493 60 4 0 2.0956445540507236 7.7304796853538695 -30 0 0 0
3497 64 4 0 4.366018367726473 7.687043751968609 -30 0 0 0
3546 113 4 0 2.0782767527102517 9.050676367063044 -30 0 0 0
3549 116 4 0 2.137157361553275 11.695792587686585 -30 0 0 0
3550 117 4 0 4.375531203394257 9.013242908720724 -30 0 0 0
3551 118 4 0 3.236502834735637 9.692433858153294 -30 0 0 0
3552 119 4 0 3.2672915228555395 11.016043064867388 -30 0 0 0
3553 120 4 0 4.414948519296649 11.675912042888754 -30 0 0 0
3555 122 4 0 5.526415159504094 9.66476657489942 -30 0 0 0
3556 123 4 0 5.546988312823645 10.9891652561713 -30 0 0 0
3606 173 4 0 4.413868686926989 12.996570751787576 -30 0 0 0
3547 114 4 0 0.9190473645607186 9.713234974481665 -30 0 0 0
3548 115 4 0 0.9932244923345496 11.05975412650161 -30 0 0 0
3504 71 4 0 7.783129870326532 6.974050118481352 -30 0 0 0
3508 75 4 0 10.064748553887583 6.966957245382712 -30 0 0 0
3512 79 4 0 12.35033277167071 6.969023331647031 -30 0 0 0
3501 68 4 0 6.644478406321002 7.659555358324634 -30 0 0 0
3554 121 4 0 6.6643862952435615 8.988140622999408 -30 0 0 0
3557 124 4 0 6.690444768005322 11.65846661774924 -30 0 0 0
3610 177 4 0 6.693731888522613 12.982226504578996 -30 0 0 0
3505 72 4 0 8.93085277589056 7.642729354544836 -30 0 0 0
3509 76 4 0 11.209871875448892 7.639418200462017 -30 0 0 0
3558 125 4 0 8.94387868503273 8.969261733825487 -30 0 0 0
3559 126 4 0 7.812164492188543 9.651234026894764 -30 0 0 0
3560 127 4 0 7.821859487221355 10.97644510320327 -30 0 0 0
3561 128 4 0 8.963750041426225 11.64465789244608 -30 0 0 0
3562 129 4 0 11.226384247660842 8.969421650350935 -30 0 0 0
3563 130 4 0 10.089739509935752 9.640309190812403 -30 0 0 0
3564 131 4 0 10.100617916361749 10.972567941917038 -30 0 0 0
3565 132 4 0 11.244166022121279 11.641162737520354 -30 0 0 0
3567 134 4 0 12.366305135689183 9.642207860654777 -30 0 0 0
3568 135 4 0 12.381606778260586 10.97090944501671 -30 0 0 0
3614 181 4 0 8.974892534042752 12.973266300302482 -30 0 0 0
3618 185 4 0 11.247702313576436 12.971737860257361 -30 0 0 0
2698 1294 7 -0.834 12.973178425113806 11.437875013517857 -26.435130764034657 6 10 0
2699 1294 5 0.417 13.160383169946515 11.544126555638755 -25.50244815783362 6 10 0
3516 83 4 0 14.636185853490142 6.975264163206457 -30 0 0 0
3520 87 4 0 16.916545978488987 6.982038722872367 -30 0 0 0
3524 91 4 0 19.200177713722123 6.981509882343611 -30 0 0 0
3513 80 4 0 13.498606613491429 7.640717422847788 -30 0 0 0
3517 84 4 0 15.77513964226859 7.651017157962751 -30 0 0 0
3521 88 4 0 18.060950046683907 7.652399378309692 -30 0 0 0
3566 133 4 0 13.505857668847069 8.973395271620259 -30 0 0 0
3569 136 4 0 13.520509091747723 11.64494427942433 -30 0 0 0
3570 137 4 0 15.795511843789228 8.97830408393035 -30 0 0 0
3571 138 4 0 14.654999724963023 9.64493603950514 -30 0 0 0
3572 139 4 0 14.657972407194876 10.976714466348508 -30 0 0 0
3573 140 4 0 15.80176906080586 11.646020790636884 -30 0 0 0
3574 141 4 0 18.06863761796098 8.983703431875806 -30 0 0 0
3575 142 4 0 16.930112376440846 9.649484267243562 -30 0 0 0
3576 143 4 0 16.945095560347188 10.975573728345166 -30 0 0 0
3577 144 4 0 18.089111001347842 11.649713257676337 -30 0 0 0
3579 146 4 0 19.220270519623174 9.653413981181963 -30 0 0 0
3580 147 4 0 19.229310217188345 10.983201326270745 -30 0 0 0
3622 189 4 0 13.52803617738703 12.972624157677698 -30 0 0 0
3626 193 4 0 15.806220421663433 12.9765503394185 -30 0 0 0
3630 197 4 0 18.09671451907967 12.977661175620554 -30 0 0 0
2700 1294 5 0.417 12.110555098723255 11.023824705136752 -26.46111504862692 6 10 0
3528 95 4 0 21.485917105803413 6.9774738174888435 -30 0 0 0
3532 99 4 0 23.760911540269753 6.963325121397955 -30 0 0 0
3536 103 4 0 26.06479654814311 6.916575877788769 -30 0 0 0
3525 92 4 0 20.349501824275453 7.6497594416625745 -30 0 0 0
3529 96 4 0 22.62984529183038 7.644712772078205 -30 0 0 0
3533 100 4 0 24.933611373776507 7.610330961483509 -30 0 0 0
3578 145 4 0 20.363298576763636 8.980335794948227 -30 0 0 0
3581 148 4 0 20.374684799808023 11.645472421415665 -30 0 0 0
3582 149 4 0 22.65127279731396 8.966277285579345 -30 0 0 0
3583 150 4 0 21.514023095151032 9.640236467927936 -30 0 0 0
3584 151 4 0 21.520591829435453 10.974959867932675 -30 0 0 0
3585 152 4 0 22.674195321233306 11.634874347863894 -30 0 0 0
3586 153 4 0 24.944730901742805 8.945309995604381 -30 0 0 0
3587 154 4 0 23.802750820768768 9.623408434898579 -30 0 0 0
3588 155 4 0 23.81403163066315 10.953235645631596 -30 0 0 0
3589 156 4 0 24.971526497539195 11.60577715855629 -30 0 0 0
3634 201 4 0 20.381328007026852 12.97535369656517 -30 0 0 0
3638 205 4 0 22.673266021886263 12.96550347439183 -30 0 0 0
3642 209 4 0 24.967381721012195 12.94464630043098 -30 0 0 0
3591 158 4 0 26.113998296554893 9.577342282401885 -30 0 0 0
3592 159 4 0 26.105994404888683 10.905702199221599 -30 0 0 0
3540 107 4 0 28.35922440341593 6.822960853263939 -30 0 0 0
3545 112 4 0 31.706144094553753 7.301071172136373 -30 0 0 0
3598 165 4 0 31.772203008732575 8.662354706901501 -30 0 0 0
3601 168 4 0 31.742903910191433 11.50357613133681 -30 0 0 0
3654 221 4 0 31.765883408206246 12.861773839297598 -30 0 0 0
3537 104 4 0 27.23658354022634 7.541366170230836 -30 0 0 0
3541 108 4 0 29.594311235332835 7.295322891427931 -30 0 0 0
3590 157 4 0 27.248795246341288 8.869603917419436 -30 0 0 0
3593 160 4 0 27.26170996762557 11.551906627972793 -30 0 0 0
3594 161 4 0 29.564139543616857 8.689255955229306 -30 0 0 0
3595 162 4 0 28.438490513483575 9.452461663425481 -30 0 0 0
3596 163 4 0 28.399576829444662 10.818801889212384 -30 0 0 0
3597 164 4 0 29.525310977190056 11.513844717770477 -30 0 0 0
3599 166 4 0 30.672541725869454 9.406030289103967 -30 0 0 0
3600 167 4 0 30.63995061895994 10.77843786336748 -30 0 0 0
3646 213 4 0 27.250368688320652 12.903334414891914 -30 0 0 0
3650 217 4 0 29.515272585017364 12.870421293264783 -30 0 0 0
3602 169 4 0 2.1267496375707635 13.011462822781244 -30 0 0 0
3605 172 4 0 2.1358021777699503 15.647956935331075 -30 0 0 0
3607 174 4 0 3.2748892361012536 13.665031938555199 -30 0 0 0
3608 175 4 0 3.2786781893288377 14.985649100314575 -30 0 0 0
3609 176 4 0 4.421569455612135 15.64587948424627 -30 0 0 0
3611 178 4 0 5.5572895359883105 13.651046313998284 -30 0 0 0
3612 179 4 0 5.562360722065402 14.978138639972412 -30 0 0 0
3658 225 4 0 2.1358025885487844 16.96607569775088 -30 0 0 0
3662 229 4 0 4.421569672461124 16.968140640599678 -30 0 0 0
3663 230 4 0 3.2786823329507353 17.628381793322493 -30 0 0 0
3664 231 4 0 3.2749013804828055 18.94899551514817 -30 0 0 0
3667 234 4 0 5.562368559799464 17.635867735825755 -30 0 0 0
3668 235 4 0 5.557318554421699 18.962957279567256 -30 0 0 0
3603 170 4 0 0.9704156319774769 13.661266203018995 -30 0 0 0
3604 171 4 0 0.9855124656501615 15.003697279042745 -30 0 0 0
3659 226 4 0 0.9855114280247179 17.61034553948427 -30 0 0 0
3660 227 4 0 0.9704375652677377 18.95277600755623 -30 0 0 0
3661 228 4 0 2.12677026125094 19.602568681098635 -30 0 0 0
493 559 7 -0.834 1.4086276602818832 13.627173474407094 -26.294640804065097 -8 1 0
494 559 5 0.417 2.143424575357354 13.410936105707403 -25.720579005175612 -8 1 0
495 559 5 0.417 1.147864809943659 12.789155372050883 -26.676688232226553 -8 1 0
3613 180 4 0 6.700847994851891 15.646135851787259 -30 0 0 0
3666 233 4 0 6.7008486769116224 16.96787065818001 -30 0 0 0
3615 182 4 0 7.836266571843499 13.644083025812998 -30 0 0 0
3616 183 4 0 7.838572560841839 14.976545000926523 -30 0 0 0
3617 184 4 0 8.980097538203923 15.643490176023002 -30 0 0 0
3619 186 4 0 10.111542272982357 13.645420360066117 -30 0 0 0
3620 187 4 0 10.113184926520187 14.972026399175574 -30 0 0 0
3621 188 4 0 11.25150675155674 15.640698452189868 -30 0 0 0
3623 190 4 0 12.389313991869441 13.641764991538299 -30 0 0 0
3624 191 4 0 12.392990706086442 14.971825407795246 -30 0 0 0
3670 237 4 0 8.980106023582117 16.97049736453767 -30 0 0 0
3671 238 4 0 7.838584862317904 17.637444694362358 -30 0 0 0
3672 239 4 0 7.836293807330489 18.96991466890189 -30 0 0 0
3674 241 4 0 11.25151459330013 16.97328621925431 -30 0 0 0
3675 242 4 0 10.113192885975137 17.64196857514262 -30 0 0 0
3676 243 4 0 10.111560371965613 18.96857536427845 -30 0 0 0
3679 246 4 0 12.39300021597657 17.642162063047312 -30 0 0 0
3680 247 4 0 12.389343222172183 18.972218256326173 -30 0 0 0
3625 192 4 0 13.530818009787321 15.64324313718018 -30 0 0 0
3627 194 4 0 14.66645708837751 13.64336754230122 -30 0 0 0
3628 195 4 0 14.67020285850671 14.972686182580654 -30 0 0 0
3629 196 4 0 15.81182244127531 15.643422638954645 -30 0 0 0
3631 198 4 0 16.952193201012772 13.644263505219651 -30 0 0 0
3632 199 4 0 16.954760759943234 14.975702199800663 -30 0 0 0
3633 200 4 0 18.09754090013027 15.643905655441873 -30 0 0 0
3635 202 4 0 19.238108562947733 13.64482744007326 -30 0 0 0
3636 203 4 0 19.239706492683048 14.972756756013329 -30 0 0 0
3678 245 4 0 13.530820626886436 16.970751674279 -30 0 0 0
3682 249 4 0 15.811829258949398 16.970571090512234 -30 0 0 0
3683 250 4 0 14.67020621013498 17.641302998972233 -30 0 0 0
3684 251 4 0 14.66647350433967 18.970628238553726 -30 0 0 0
3686 253 4 0 18.097543763357177 16.970096462965223 -30 0 0 0
3687 254 4 0 16.954769141973625 17.63830171663596 -30 0 0 0
3688 255 4 0 16.95221051492619 18.969736852627747 -30 0 0 0
3691 258 4 0 19.239711781204324 17.64124966370133 -30 0 0 0
3692 259 4 0 19.238127141372406 18.969182571546536 -30 0 0 0
3637 204 4 0 20.388824186612464 15.640547343498065 -30 0 0 0
3639 206 4 0 21.53257751791 13.64228068521417 -30 0 0 0
3640 207 4 0 21.53420560453174 14.972367006614489 -30 0 0 0
3641 208 4 0 22.677228781753726 15.64107185042623 -30 0 0 0
3643 210 4 0 23.823835649135223 13.626411747369803 -30 0 0 0
3644 211 4 0 23.821720061762537 14.966485696600122 -30 0 0 0
3645 212 4 0 24.96832084439561 15.636197625156742 -30 0 0 0
3690 257 4 0 20.388827666582365 16.97346377037917 -30 0 0 0
3694 261 4 0 22.67723061534274 16.972939239717782 -30 0 0 0
3695 262 4 0 21.534208274110245 17.641643193981263 -30 0 0 0
3696 263 4 0 21.532585820256006 18.97173344705277 -30 0 0 0
3698 265 4 0 24.968317385963456 16.977805977154844 -30 0 0 0
3699 266 4 0 23.82172052265601 17.647527366685512 -30 0 0 0
3700 267 4 0 23.823838429290692 18.9875958984309 -30 0 0 0
3647 214 4 0 26.11627929452282 13.600046003481124 -30 0 0 0
3648 215 4 0 26.105817366847443 14.947233270945109 -30 0 0 0
3703 270 4 0 26.10581724308557 17.666772197895103 -30 0 0 0
3704 271 4 0 26.116277826239806 19.013954531924366 -30 0 0 0
1186 790 7 -0.834 24.54332349198882 16.617026617857903 -25.897972195316783 -5 -1 0
1187 790 5 0.417 24.53995511928248 16.16077052763907 -25.056514573674736 -5 -1 0
662 615 5 0.417 25.469849815030837 20.114417035967623 -25.984940835934832 -1 2 0
3657 224 4 0 31.750607512302448 15.627317448294656 -30 0 0 0
3710 277 4 0 31.750606565251395 16.986676248567225 -30 0 0 0
3649 216 4 0 27.242352627444482 15.630496978407024 -30 0 0 0
3651 218 4 0 28.38769586902855 13.574743081171016 -30 0 0 0
3652 219 4 0 28.374110643216472 14.931845807882452 -30 0 0 0
3653 220 4 0 29.504174452350806 15.627305807364097 -30 0 0 0
3655 222 4 0 30.640671259427208 13.568600975286076 -30 0 0 0
3656 223 4 0 30.630197121703226 14.921879484474426 -30 0 0 0
3702 269 4 0 27.242347561600514 16.98349544495543 -30 0 0 0
3706 273 4 0 29.504169039105054 16.986677964764194 -30 0 0 0
3707 274 4 0 28.374104885148444 17.6821408148148 -30 0 0 0
3708 275 4 0 28.387687452390615 19.039242557795255 -30 0 0 0
3711 278 4 0 30.630187677777425 17.692100060727444 -30 0 0 0
3712 279 4 0 30.640661029369493 19.0453728953672 -30 0 0 0
663 615 5 0.417 26.786019845058462 19.503790649921477 -26.41706011054924 -1 2 0
3665 232 4 0 4.41389897863857 19.617430265376576 -30 0 0 0
3714 281 4 0 2.1371979895594917 20.918244347205555 -30 0 0 0
3717 284 4 0 2.078425225437706 23.563320691115663 -30 0 0 0
3718 285 4 0 4.41501561338348 20.938094146894898 -30 0 0 0
3719 286 4 0 3.2673622897030796 21.597964072832255 -30 0 0 0
3720 287 4 0 3.2366328193316196 22.92155306398582 -30 0 0 0
3721 288 4 0 4.375657653789036 23.60076081357576 -30 0 0 0
3723 290 4 0 5.54706497572389 21.62483408522903 -30 0 0 0
3724 291 4 0 5.526539671916794 22.949232053971233 -30 0 0 0
3770 337 4 0 2.095805639814945 24.883496716509335 -30 0 0 0
3774 341 4 0 4.366180870446735 24.92694623293158 -30 0 0 0
3715 282 4 0 0.9932620134163772 21.55430627148296 -30 0 0 0
3716 283 4 0 0.9191730930508126 22.900813673141986 -30 0 0 0
3775 342 4 0 3.211808968449005 25.578714212725373 -30 0 0 0
3779 346 4 0 5.495511607472437 25.61561939723958 -30 0 0 0
3771 338 4 0 0.9606394057797067 25.53628389748629 -30 0 0 0
3669 236 4 0 6.693764191955222 19.631773962447078 -30 0 0 0
3722 289 4 0 6.690504976458213 20.95553414050583 -30 0 0 0
3725 292 4 0 6.664501814441804 23.62588102724792 -30 0 0 0
3778 345 4 0 6.64462097837071 24.954451174272652 -30 0 0 0
3673 240 4 0 8.974926567761774 19.640728242721657 -30 0 0 0
3677 244 4 0 11.247731795689203 19.64225066463111 -30 0 0 0
3726 293 4 0 8.963812179474345 20.969335670606117 -30 0 0 0
3727 294 4 0 7.82192869524693 21.63754410209324 -30 0 0 0
3728 295 4 0 7.812272811431063 22.962775306368954 -30 0 0 0
3729 296 4 0 8.943997127896903 23.644738748006596 -30 0 0 0
3730 297 4 0 11.244204275497683 20.97283522987617 -30 0 0 0
3731 298 4 0 10.100673119218119 21.64144137076896 -30 0 0 0
3732 299 4 0 10.08982950502552 22.973694151213817 -30 0 0 0
3733 300 4 0 11.226460303305172 23.644588749760366 -30 0 0 0
3735 302 4 0 12.3816628595685 21.64308051066409 -30 0 0 0
3736 303 4 0 12.366377994908111 22.971796848318316 -30 0 0 0
3782 349 4 0 8.930990961527472 24.971293720251005 -30 0 0 0
3786 353 4 0 11.209997024338668 24.97459278324578 -30 0 0 0
3783 350 4 0 7.783255235520406 25.639983486401928 -30 0 0 0
3787 354 4 0 10.064899542042067 25.64706014749927 -30 0 0 0
3791 358 4 0 12.350452898217446 25.644991334773945 -30 0 0 0
3681 248 4 0 13.528056473641058 19.641371710215644 -30 0 0 0
3685 252 4 0 15.806246073173861 19.6374500008119 -30 0 0 0
3689 256 4 0 18.09673169958992 19.636343141225137 -30 0 0 0
3734 301 4 0 13.52056109769163 20.969045965423717 -30 0 0 0
3737 304 4 0 13.505951798786121 23.64060762342339 -30 0 0 0
3738 305 4 0 15.801809569099719 20.967980198149938 -30 0 0 0
3739 306 4 0 14.658021935306273 21.637287778193837 -30 0 0 0
3740 307 4 0 14.65507666974498 22.96906289866082 -30 0 0 0
3741 308 4 0 15.795589022185966 23.635702066853206 -30 0 0 0
3742 309 4 0 18.089149902744378 20.964299787915365 -30 0 0 0
3743 310 4 0 16.94513483118993 21.638433173730505 -30 0 0 0
3744 311 4 0 16.93019089642446 22.964526740820066 -30 0 0 0
3745 312 4 0 18.068719718217448 23.630321954056704 -30 0 0 0
3747 314 4 0 19.22935654284409 21.6308216245287 -30 0 0 0
3748 315 4 0 19.220337348513034 22.96060951011203 -30 0 0 0
3790 357 4 0 13.498717127319061 24.973291204718198 -30 0 0 0
3794 361 4 0 15.775262362605849 24.962993670424225 -30 0 0 0
3798 365 4 0 18.061071561507834 24.961623263256392 -30 0 0 0
3795 362 4 0 14.636315917747037 25.638744046569528 -30 0 0 0
3799 366 4 0 16.916675919279008 25.63198002561607 -30 0 0 0
3803 370 4 0 19.20030275175056 25.63252583265802 -30 0 0 0
3693 260 4 0 20.38134398786358 19.638664361984183 -30 0 0 0
3697 264 4 0 22.67327851730869 19.64851687913437 -30 0 0 0
3701 268 4 0 24.967385261867438 19.66936506828381 -30 0 0 0
3746 313 4 0 20.374718137980132 20.96854325980031 -30 0 0 0
3749 316 4 0 20.36337172633687 23.633696031243222 -30 0 0 0
3750 317 4 0 22.67421855626813 20.97914518561823 -30 0 0 0
3751 318 4 0 21.52062499356168 21.639065931563987 -30 0 0 0
3752 319 4 0 21.5140871454378 22.973790686375157 -30 0 0 0
3753 320 4 0 22.65134009764696 23.647751349013827 -30 0 0 0
3754 321 4 0 24.97154871457665 21.008235734368792 -30 0 0 0
3755 322 4 0 23.814059417070748 21.66078134333798 -30 0 0 0
3756 323 4 0 23.80281160661832 22.990617753089808 -30 0 0 0
3757 324 4 0 24.94479690241657 23.668699578697495 -30 0 0 0
3802 369 4 0 20.349612427289372 24.964277193998242 -30 0 0 0
3806 373 4 0 22.629959549437615 24.969322536320107 -30 0 0 0
3810 377 4 0 24.933727203287965 25.003690739688643 -30 0 0 0
3759 326 4 0 26.106017536898058 21.708295022839074 -30 0 0 0
3760 327 4 0 26.114067275151005 23.03667159855345 -30 0 0 0
3807 374 4 0 21.486040728998354 25.636565211827232 -30 0 0 0
3811 378 4 0 23.76103396714431 25.650701578223867 -30 0 0 0
3815 382 4 0 26.064907960020054 25.697400858487967 -30 0 0 0
661 615 7 -0.834 26.03027756765006 19.350247697647603 -25.850041579328067 -1 2 0
3713 280 4 0 31.765886531171933 19.75217286838592 -30 0 0 0
3766 333 4 0 31.742947207101764 21.11036956677635 -30 0 0 0
3769 336 4 0 31.772271696696233 23.951549947305963 -30 0 0 0
3822 389 4 0 31.706278075216662 25.312831748972386 -30 0 0 0
3705 272 4 0 27.25036579315179 19.710658565054555 -30 0 0 0
3709 276 4 0 29.51526720893151 19.743550696825913 -30 0 0 0
3758 325 4 0 27.261734508320377 21.062093765574815 -30 0 0 0
3761 328 4 0 27.2488551661088 23.74437191287293 -30 0 0 0
3762 329 4 0 29.525339641625337 21.100130763325645 -30 0 0 0
3763 330 4 0 28.39960377122207 21.795168583472147 -30 0 0 0
3764 331 4 0 28.438556790349285 23.16152449087513 -30 0 0 0
3765 332 4 0 29.564204090815526 23.92468313509088 -30 0 0 0
3767 334 4 0 30.63998674272751 21.835502776947298 -30 0 0 0
3768 335 4 0 30.67260462745789 23.207909770018844 -30 0 0 0
3814 381 4 0 27.23671307009353 25.072633849606593 -30 0 0 0
3818 385 4 0 29.594457605494952 25.318641808968678 -30 0 0 0
3819 386 4 0 28.359349338418596 25.790984563077505 -30 0 0 0
3773 340 4 0 1.9384586652329272 27.52124197207907 -30 0 0 0
3776 343 4 0 3.1376687174556523 26.897863281435715 -30 0 0 0
3777 344 4 0 4.296439960243159 27.58829794524301 -30 0 0 0
3780 347 4 0 5.46210819121645 26.93995988439952 -30 0 0 0
3826 393 4 0 2.08500801780615 28.821897069610355 -30 0 0 0
3829 396 4 0 1.7703555940386797 31.630755737352885 -30 0 0 0
3830 397 4 0 4.31823408480756 28.918417022531703 -30 0 0 0
3831 398 4 0 3.1779059501527396 29.552841256478576 -30 0 0 0
3832 399 4 0 3.003239964377653 30.93079624941365 -30 0 0 0
3833 400 4 0 4.167645903394389 31.628148639207318 -30 0 0 0
3835 402 4 0 5.42842508358717 29.63176746882459 -30 0 0 0
3836 403 4 0 5.355631197241361 30.971996796482472 -30 0 0 0
3772 339 4 0 0.762332146101188 26.887080321321097 -30 0 0 0
3827 394 4 0 1.5757514929749319 29.978900969120325 -30 0 0 0
3828 395 4 0 0.6697359445580272 30.842218553306903 -30 0 0 0
3781 348 4 0 6.59848680206327 27.632051715153633 -30 0 0 0
3834 401 4 0 6.58760485130094 28.967900527031436 -30 0 0 0
3837 404 4 0 6.51904644973931 31.640178008091716 -30 0 0 0
3784 351 4 0 7.753831732780074 26.96986405082351 -30 0 0 0
3785 352 4 0 8.899108060947976 27.64836985501888 -30 0 0 0
3788 355 4 0 10.048305805234383 26.974820234258846 -30 0 0 0
3789 356 4 0 11.188731390487256 27.64716875336115 -30 0 0 0
3792 359 4 0 12.336711058910073 26.97670679404906 -30 0 0 0
3838 405 4 0 8.878492755837897 28.97870557429503 -30 0 0 0
3839 406 4 0 7.726275150305084 29.647840870873612 -30 0 0 0
3840 407 4 0 7.692858330189553 30.979462297124144 -30 0 0 0
3841 408 4 0 8.850612692577707 31.64401947415291 -30 0 0 0
3842 409 4 0 11.173570970518636 28.97651690208197 -30 0 0 0
3843 410 4 0 10.02566489112146 29.647584658629494 -30 0 0 0
3844 411 4 0 10.007863979704085 30.976426439313933 -30 0 0 0
3845 412 4 0 11.159575083830978 31.64467950982088 -30 0 0 0
3847 414 4 0 12.316490411087095 29.644187019488395 -30 0 0 0
3848 415 4 0 12.310408732963703 30.975237410533882 -30 0 0 0
1338 840 5 0.417 12.358721058065576 26.51507770545287 -25.99276712901491 -1 0 0
3793 360 4 0 13.476034825452677 27.640594310813306 -30 0 0 0
3796 363 4 0 14.620151310248723 26.96732274649551 -30 0 0 0
3797 364 4 0 15.763431073109457 27.637692203360334 -30 0 0 0
3800 367 4 0 16.906168717696765 26.963355136912618 -30 0 0 0
3801 368 4 0 18.044592199695483 27.632273850902287 -30 0 0 0
3804 371 4 0 19.18724133617768 26.961135864367684 -30 0 0 0
3846 413 4 0 13.46789313283306 28.97287680983164 -30 0 0 0
3849 416 4 0 13.457407520506406 31.64480453971334 -30 0 0 0
3850 417 4 0 15.751642521393713 28.968786689088343 -30 0 0 0
3851 418 4 0 14.612503512164642 29.63980617805888 -30 0 0 0
3852 419 4 0 14.602800235990443 30.970249728244813 -30 0 0 0
3853 420 4 0 15.74638800081187 31.642159176895472 -30 0 0 0
3854 421 4 0 18.031140803870716 28.962387282587827 -30 0 0 0
3855 422 4 0 16.89044918417244 29.63677027423824 -30 0 0 0
3856 423 4 0 16.886873992937396 30.96696936000858 -30 0 0 0
3857 424 4 0 18.025143058821666 31.644105371749873 -30 0 0 0
3859 426 4 0 19.166615832925878 29.636098059155138 -30 0 0 0
3860 427 4 0 19.16714535678587 30.966801174215046 -30 0 0 0
3805 372 4 0 20.320155165586833 27.632101457025144 -30 0 0 0
3808 375 4 0 21.46010845526287 26.96161867000156 -30 0 0 0
3809 376 4 0 22.589226864659093 27.645331266034763 -30 0 0 0
3812 379 4 0 23.751574877152937 26.986200240291485 -30 0 0 0
3813 380 4 0 24.880078055429433 27.668647794734213 -30 0 0 0
3858 425 4 0 20.3108071198581 28.962881231908614 -30 0 0 0
3861 428 4 0 20.30374530892888 31.644060452292504 -30 0 0 0
3862 429 4 0 22.586072070180386 28.975284175684013 -30 0 0 0
3863 430 4 0 21.44594880146185 29.640379396281883 -30 0 0 0
3864 431 4 0 21.436792675307522 30.969307446791984 -30 0 0 0
3865 432 4 0 22.572981632029396 31.647365688764747 -30 0 0 0
3866 433 4 0 24.846788199207996 28.99379685431344 -30 0 0 0
3867 434 4 0 23.70973138389668 29.65385148334444 -30 0 0 0
3868 435 4 0 23.721235140587414 30.976625199397454 -30 0 0 0
3869 436 4 0 24.864029771491968 31.654894612492402 -30 0 0 0
3816 383 4 0 26.018572519444298 27.0145965246534 -30 0 0 0
3871 438 4 0 25.97962519805859 29.68519220420249 -30 0 0 0
3872 439 4 0 26.020960862492053 31.01408919576972 -30 0 0 0
3825 392 4 0 31.9124030808529 28.79218610851551 -30 0 0 0
3878 445 4 0 31.3300646462567 27.74718599625175 -30 0 0 0
3881 448 4 0 31.53116185581962 31.59648582920041 -30 0 0 0
3817 384 4 0 27.13012978752636 27.709545480479676 -30 0 0 0
3820 387 4 0 28.305233113537955 27.081810453563524 -30 0 0 0
3821 388 4 0 29.394845392293405 27.821259721366424 -30 0 0 0
3823 390 4 0 30.70385987975384 26.217309027638148 -30 0 0 0
3824 391 4 0 30.747610463662287 27.719352852699004 -30 0 0 0
3870 437 4 0 27.115525927034742 29.03892147459916 -30 0 0 0
3873 440 4 0 27.185961334016383 31.666819963530806 -30 0 0 0
3874 441 4 0 29.29983299958936 29.018832492477507 -30 0 0 0
3875 442 4 0 28.229299324724757 29.730547161275524 -30 0 0 0
3876 443 4 0 28.340206030524403 31.0132686872178 -30 0 0 0
3877 444 4 0 29.603433939988882 31.483402477853804 -30 0 0 0
3879 446 4 0 30.57505587086173 29.092186287790916 -30 0 0 0
3880 447 4 0 30.644856470993084 30.548519340037743 -30 0 0 0
2081 1088 5 0.417 5.577659305752345 1.9621428739207434 -20.339199944313687 -3 -2 0
2080 1088 7 -0.834 5.294095629055909 2.6210030504696946 -20.97301912946683 -3 -2 0
2082 1088 5 0.417 6.077607189302858 2.810218893778268 -21.489293145842336 -3 -2 0
2906 1363 5 0.417 7.5819733770870945 32.18923112854073 -24.839888834038693 1 6 0
2764 1316 7 -0.834 11.89504428765793 1.4629081768740273 -20.88939143767568 -5 5 0
2766 1316 5 0.417 12.540161015853823 2.1019121870257984 -20.586521363892974 -5 5 0
2907 1363 5 0.417 6.508043906717286 31.786379065910882 -23.85181953629299 1 6 0
2765 1316 5 0.417 12.365023179946764 0.934820321945177 -21.53474017234066 -5 5 0
2357 1180 5 0.417 19.940052417727173 1.986855012487643 -20.947400720175928 -1 12 0
2356 1180 7 -0.834 20.279700938106213 2.3156392887882657 -21.779729812161253 -1 12 0
2358 1180 5 0.417 20.894084415565054 3.0066012498867942 -21.532068003839974 -1 12 0
267 483 5 0.417 31.039173130615506 2.306294391496575 -19.598163767689595 -9 2 0
265 483 7 -0.834 31.208434811945946 2.3709183688438444 -20.538060631618052 -9 2 0
861 681 5 0.417 28.944759807429563 5.8540325161183935 -21.506445439874902 4 -3 0
860 681 5 0.417 29.293994738876176 7.301371045284929 -21.23232579955644 4 -3 0
859 681 7 -0.834 29.55420344204648 6.5469204159949195 -21.760840324759556 4 -3 0
1188 790 5 0.417 24.199396494536963 17.488098432653025 -25.700032868547204 -5 -1 0
4344 9 2 0.6512 3.4566485028418334 26.05419157499347 -24.762738761702042 -5 7 0