LAMMPS (29 Aug 2024)
units                  real
atom_style	       full
bond_style	       harmonic
angle_style	       harmonic
boundary	       p p p

neighbor 2.0 bin
neigh_modify every 1 delay 0 check yes

# ============= read data and parameters files

pair_style            lj/cut 10.0
pair_modify           shift yes mix arithmetic

read_data             equilb_100ps.data
Reading data file ...
  orthogonal box = (-0.1495 -0.193001 -38.75) to (32.8505 32.806999 41.25)
  1 by 2 by 4 MPI processor grid
  reading atoms ...
  4349 atoms
  reading velocities ...
  4349 velocities
  scanning bonds ...
  2 = max bonds/atom
  scanning angles ...
  3 = max angles/atom
  scanning dihedrals ...
  8 = max dihedrals/atom
  scanning impropers ...
  2 = max impropers/atom
  orthogonal box = (-0.1495 -0.193001 -38.75) to (32.8505 32.806999 41.25)
  1 by 2 by 4 MPI processor grid
  reading bonds ...
  3917 bonds
  reading angles ...
  4637 angles
  reading dihedrals ...
  6951 dihedrals
  reading impropers ...
  1152 impropers
Finding 1-2 1-3 1-4 neighbors ...
  special bond factors lj:    0        0        0       
  special bond factors coul:  0        0        0       
     3 = max # of 1-2 neighbors
     6 = max # of 1-3 neighbors
    18 = max # of 1-4 neighbors
    18 = max # of special neighbors
  special bonds CPU = 0.001 seconds
  read_data CPU = 0.081 seconds

pair_coeff  1  1      0.0859  3.3997
pair_coeff  2  2      0.0559  2.757
pair_coeff  3  3      0.0859  3.3997
pair_coeff  4  4      0.0859  3.3997
pair_coeff  5  5      0.0000  1.0000
pair_coeff  6  6      0.1598  3.0330
pair_coeff  7  7      0.1521  3.1507

bond_coeff     1      938.0    1.42
bond_coeff     2      190.96   1.149
bond_coeff     3      938.0    1.42
bond_coeff     4      938.0    1.42
bond_coeff     5      450.0    0.9572

angle_coeff    1      126      120.0
angle_coeff    2      126      120.0
angle_coeff    3      126      120.0
angle_coeff    4      55.0     104.52
angle_coeff    5      295.4    180.0


group  water     type 5  7
2985 atoms in group water
group  memb      type 1
438 atoms in group memb
group  CG1       type 3
448 atoms in group CG1
group  CG2       type 4
448 atoms in group CG2
group  CG3       type 3 4
896 atoms in group CG3

dump dump_1 all custom 500 dump.lammpstrj id type x y z

timestep 1.0
thermo_style custom step time cpu temp pe ke etotal press vol
thermo 100

fix                    myshk1  water shake 1.0e-5 200 0 b 5 a 4
Finding SHAKE clusters ...
       0 = # of size 2 clusters
       0 = # of size 3 clusters
       0 = # of size 4 clusters
     995 = # of frozen angles
  find clusters CPU = 0.000 seconds

fix                    freeze memb setforce 0.0 0.0 0.0

fix                    pistonkeep CG3  setforce  0.0   0.0    NULL
fix                    myforce1   CG1  aveforce  NULL  NULL  -1.439     #P=250 bars
fix                    freeze1    CG2  setforce 0.0 0.0 0.0

fix                    mynvt  all nvt temp 300 300 100.0
run                    500000

CITE-CITE-CITE-CITE-CITE-CITE-CITE-CITE-CITE-CITE-CITE-CITE-CITE

Your simulation uses code contributions which should be cited:

- Type Label Framework: https://doi.org/10.1021/acs.jpcb.3c08419

@Article{Gissinger24,
 author = {Jacob R. Gissinger, Ilia Nikiforov, Yaser Afshar, Brendon Waters, Moon-ki Choi, Daniel S. Karls, Alexander Stukowski, Wonpil Im, Hendrik Heinz, Axel Kohlmeyer, and Ellad B. Tadmor},
 title = {Type Label Framework for Bonded Force Fields in LAMMPS},
 journal = {J. Phys. Chem. B},
 year =    2024,
 volume =  128,
 number =  13,
 pages =   {3282–-3297}
}

CITE-CITE-CITE-CITE-CITE-CITE-CITE-CITE-CITE-CITE-CITE-CITE-CITE

Generated 21 of 21 mixed pair_coeff terms from arithmetic mixing rule
WARNING: Dihedrals are defined but no dihedral style is set (../force.cpp:207)
WARNING: Likewise 1-4 special neighbor interactions != 1.0 (../force.cpp:209)
WARNING: Impropers are defined but no improper style is set (../force.cpp:212)
Neighbor list info ...
  update: every = 1 steps, delay = 0 steps, check = yes
  max neighbors/atom: 2000, page size: 100000
  master list distance cutoff = 12
  ghost atom cutoff = 12
  binsize = 6, bins = 6 6 14
  1 neighbor lists, perpetual/occasional/extra = 1 0 0
  (1) pair lj/cut, perpetual
      attributes: half, newton on
      pair build: half/bin/newton
      stencil: half/bin/3d
      bin: standard
Per MPI rank memory allocation (min/avg/max) = 12.34 | 12.94 | 13.87 Mbytes
   Step          Time           CPU            Temp          PotEng         KinEng         TotEng         Press          Volume    
         0   0              0              300.68202      9142.5469      3005.2134      12147.76       56846.938      87120        
       100   100            0.57500979     304.89915      9179.8021      3047.3621      12227.164      57088.379      87120        
       200   200            1.1659861      312.85064      9232.4643      3126.8345      12359.299      57524.727      87120        
       300   300            1.7607638      325.06563      9291.0894      3248.9192      12540.009      57987.494      87120        
       400   400            2.3629511      325.83863      9427.6742      3256.645       12684.319      58666.164      87120        
       500   500            2.9747164      337.1233       9436.6454      3369.4314      12806.077      58960.057      87120        
       600   600            3.6367957      342.63804      9476.6739      3424.5494      12901.223      59356.259      87120        
       700   700            4.3296785      341.3444       9557.1125      3411.6199      12968.732      59948.03       87120        
       800   800            5.084383       342.61572      9584.4474      3424.3262      13008.774      60306.138      87120        
       900   900            5.8852529      335.53984      9677.1637      3353.6053      13030.769      60892.406      87120        
      1000   1000           6.7312805      329.53521      9758.4867      3293.5911      13052.078      61437.985      87120        
      1100   1100           7.6177745      328.35988      9831.2914      3281.8441      13113.135      61995.403      87120        
      1200   1200           8.5482962      318.87912      10012.824      3187.0871      13199.911      62999.911      87120        
      1300   1300           9.5110166      300.67576      10373.961      3005.1508      13379.112      64497.047      87120        
      1400   1400           10.54029       300.61341      10687.922      3004.5277      13692.45       65998.299      87120        
      1500   1500           11.623098      287.64226      11199.297      2874.8854      14074.182      68079.842      87120        
      1600   1600           12.722532      292.06368      11605.79       2919.0761      14524.866      69748.706      87120        
      1700   1700           13.8529        299.34662      11926.847      2991.8666      14918.713      71040.998      87120        
      1800   1800           15.002011      307.52379      12036.958      3073.5946      15110.553      71420.674      87120        
      1900   1900           16.150875      320.76737      11784.831      3205.9595      14990.79       70502.6        87120        
      2000   2000           17.291219      304.18964      11526.624      3040.2708      14566.895      69431.024      87120        
      2100   2100           18.389782      301.41514      11091.896      3012.5406      14104.437      67646.717      87120        
      2200   2200           19.459388      295.6519       10706.042      2954.939       13660.981      66026.773      87120        
      2300   2300           20.51435       290.94311      10393.121      2907.8763      13300.997      64612.719      87120        
      2400   2400           21.568705      298.57249      10102.28       2984.1294      13086.41       63311.452      87120        
      2500   2500           22.572971      296.43297      9949.3114      2962.7456      12912.057      62423.138      87120        
      2600   2600           23.527648      296.82977      9798.1214      2966.7115      12764.833      61643.714      87120        
      2700   2700           24.486751      294.83987      9731.0044      2946.8232      12677.828      61249.845      87120        
      2800   2800           25.406005      296.77768      9658.5068      2966.1908      12624.698      60743.131      87120        
      2900   2900           26.309278      296.84499      9630.9871      2966.8636      12597.851      60544.494      87120        
      3000   3000           27.202308      297.42932      9648.0305      2972.7038      12620.734      60450.282      87120        
      3100   3100           28.071736      305.23771      9587.8463      3050.746       12638.592      60211.054      87120        
      3200   3200           28.942609      304.22683      9586.4678      3040.6425      12627.11       60222.687      87120        
      3300   3300           29.811079      299.93573      9634.7519      2997.7544      12632.506      60288.246      87120        
      3400   3400           30.688984      297.98141      9675.3625      2978.2218      12653.584      60548.441      87120        
      3500   3500           31.564341      304.87024      9653.5235      3047.0733      12700.597      60540.005      87120        
      3600   3600           32.452444      300.49207      9757.2676      3003.3149      12760.583      60973.542      87120        
      3700   3700           33.347598      300.44115      9825.7857      3002.8059      12828.592      61422.335      87120        
      3800   3800           34.264224      305.90089      9893.9079      3057.3742      12951.282      61870.212      87120        
      3900   3900           35.193405      304.96415      10031.209      3048.0118      13079.221      62542.528      87120        
      4000   4000           36.156899      307.26396      10155.191      3070.9977      13226.189      63182.903      87120        
      4100   4100           37.127619      301.88915      10339.868      3017.2783      13357.147      64004.778      87120        
      4200   4200           38.155652      298.23279      10502.841      2980.7341      13483.575      64750.401      87120        
      4300   4300           39.189936      296.44283      10631.458      2962.8441      13594.302      65376.545      87120        
      4400   4400           40.253029      301.20076      10736.668      3010.398       13747.066      65894.013      87120        
      4500   4500           41.326912      297.56429      10883.637      2974.0527      13857.69       66478.014      87120        
      4600   4600           42.402548      294.90108      10983.574      2947.4349      13931.009      66895.221      87120        
      4700   4700           43.460309      308.6476       10933.58       3084.8266      14018.406      66775.264      87120        
      4800   4800           44.540436      302.8975       10882.343      3027.3564      13909.7        66500.127      87120        
      4900   4900           45.617356      300.7352       10763.716      3005.7449      13769.461      66095.303      87120        
      5000   5000           46.699872      298.8201       10639.677      2986.6041      13626.281      65482.671      87120        
      5100   5100           47.758207      304.1911       10470.295      3040.2855      13510.58       64765.687      87120        
      5200   5200           48.802465      304.13097      10386.612      3039.6844      13426.297      64381.546      87120        
      5300   5300           49.837573      305.87705      10264.425      3057.1359      13321.561      63776.139      87120        
      5400   5400           50.855943      295.8374       10175.525      2956.7931      13132.318      63276.19       87120        
      5500   5500           51.838837      295.36309      10057.911      2952.0525      13009.963      62776.762      87120        
      5600   5600           52.822365      291.86447      10013.106      2917.085       12930.191      62513.959      87120        
      5700   5700           53.78332       296.55512      9927.7019      2963.9664      12891.668      62057.506      87120        
      5800   5800           54.738539      297.82099      9894.2909      2976.6184      12870.909      61881.999      87120        
      5900   5900           55.688023      300.93541      9883.253       3007.746       12890.999      61822.156      87120        
      6000   6000           56.629944      293.64452      9952.3715      2934.876       12887.247      61960.405      87120        
      6100   6100           57.545745      304.59374      9872.851       3044.3097      12917.161      61763.92       87120        
      6200   6200           58.453144      303.02744      9906.3837      3028.6551      12935.039      61846.473      87120        
      6300   6300           59.374968      301.60265      9887.8452      3014.4148      12902.26       61835.508      87120        
      6400   6400           60.301762      294.24986      10029.301      2940.9262      12970.228      62473.912      87120        
      6500   6500           61.244407      300.51166      10113.047      3003.5107      13116.557      62752.519      87120        
      6600   6600           62.206373      308.0921       10133.03       3079.2746      13212.304      63001.958      87120        
      6700   6700           63.192042      304.11797      10164.168      3039.5546      13203.723      63213.862      87120        
      6800   6800           64.181334      303.35697      10247.055      3031.9486      13279.004      63481.735      87120        
      6900   6900           65.192917      304.89764      10283.125      3047.347       13330.472      63781.096      87120        
      7000   7000           66.216284      296.27491      10397.589      2961.1658      13358.755      64257.772      87120        
      7100   7100           67.209278      299.86836      10432.127      2997.0812      13429.208      64374.53       87120        
      7200   7200           68.240363      300.02858      10478.917      2998.6825      13477.6        64657.477      87120        
      7300   7300           69.298626      302.86727      10445.756      3027.0542      13472.81       64608.475      87120        
      7400   7400           70.354988      295.97857      10538.022      2958.204       13496.226      64879.078      87120        
      7500   7500           71.397022      300.91761      10514.533      3007.568       13522.101      64900.425      87120        
      7600   7600           72.447867      298.43385      10556.388      2982.7437      13539.131      65005.093      87120        
      7700   7700           73.489756      302.5535       10555.525      3023.9182      13579.443      64966.795      87120        
      7800   7800           74.529858      306.45223      10465.563      3062.8846      13528.447      64636.756      87120        
      7900   7900           75.548788      296.84946      10366.607      2966.9083      13333.515      64198.771      87120        
      8000   8000           76.594003      293.00469      10349.421      2928.4811      13277.902      63949.113      87120        
      8100   8100           77.607866      302.33971      10260.709      3021.7814      13282.491      63730.591      87120        
      8200   8200           78.621981      301.6775       10210.187      3015.1628      13225.35       63430.027      87120        
      8300   8300           79.628628      301.08934      10184.899      3009.2844      13194.183      63325.231      87120        
      8400   8400           80.623323      306.55638      10143.726      3063.9256      13207.651      63156.165      87120        
      8500   8500           81.609674      301.32991      10111.507      3011.6888      13123.196      62916.66       87120        
      8600   8600           82.586952      293.68683      10102.541      2935.2989      13037.84       62869.613      87120        
      8700   8700           83.552686      306.06736      10037.311      3059.038       13096.349      62680.49       87120        
      8800   8800           84.521708      305.62489      10108.697      3054.6157      13163.313      62830.119      87120        
      8900   8900           85.48529       306.02257      10041.674      3058.5904      13100.265      62620.126      87120        
      9000   9000           86.443258      295.15419      10093.763      2949.9646      13043.727      62769.469      87120        
      9100   9100           87.387302      302.2148       10063.171      3020.533       13083.704      62710.92       87120        
      9200   9200           88.355853      298.28817      10131.28       2981.2877      13112.567      62952.982      87120        
      9300   9300           89.341305      298.28346      10163.139      2981.2406      13144.379      63116.499      87120        
      9400   9400           90.323826      298.54088      10148.538      2983.8135      13132.352      63133.232      87120        
      9500   9500           91.31102       295.97805      10232.145      2958.1988      13190.344      63378.123      87120        
      9600   9600           92.316002      309.08055      10229.498      3089.1538      13318.652      63511.637      87120        
      9700   9700           93.325968      304.37439      10275.699      3042.1174      13317.817      63637.073      87120        
      9800   9800           94.320879      299.50699      10336.858      2993.4694      13330.328      63976.196      87120        
      9900   9900           95.346282      302.34321      10365.602      3021.8164      13387.419      64130.524      87120        
     10000   10000          96.38099       300.73473      10386.954      3005.7402      13392.694      64207.186      87120        
     10100   10100          97.410803      297.57056      10392.266      2974.1155      13366.382      64283.44       87120        
     10200   10200          98.42786       296.613        10392.158      2964.5449      13356.703      64290.081      87120        
     10300   10300          99.442997      301.95774      10390.693      3017.9637      13408.657      64204.675      87120        
     10400   10400          100.46716      309.20881      10379.503      3090.4357      13469.939      64263.133      87120        
     10500   10500          101.50264      302.86823      10340.032      3027.0638      13367.096      63987.744      87120        
     10600   10600          102.52643      297.07184      10322.178      2969.1308      13291.309      63946.408      87120        
     10700   10700          103.56578      297.29203      10304.91       2971.3316      13276.242      63871.068      87120        
     10800   10800          104.62129      300.64286      10308.456      3004.822       13313.278      63861.052      87120        
     10900   10900          105.65824      298.42228      10323.375      2982.628       13306.003      63862.433      87120        
     11000   11000          106.68604      307.05133      10205.119      3068.8724      13273.991      63428.786      87120        
     11100   11100          107.69902      291.73429      10200.286      2915.7839      13116.07       63343.963      87120        
     11200   11200          108.67801      297.02493      10158.332      2968.662       13126.994      63195.502      87120        
     11300   11300          109.67145      299.16326      10208.75       2990.0339      13198.784      63363.82       87120        
     11400   11400          110.66892      299.0407       10198.397      2988.8089      13187.206      63314.66       87120        
     11500   11500          111.65171      293.9999       10203.893      2938.4279      13142.321      63269.691      87120        
     11600   11600          112.65041      300.99719      10065.55       3008.3634      13073.914      62845.526      87120        
     11700   11700          113.64272      293.3089       10079.007      2931.5216      13010.528      62855.647      87120        
     11800   11800          114.62889      300.38689      10088.115      3002.2637      13090.379      62879.264      87120        
     11900   11900          115.62311      301.30871      10174.241      3011.4769      13185.718      63198.917      87120        
     12000   12000          116.61141      304.57381      10198.083      3044.1105      13242.194      63382.02       87120        
     12100   12100          117.59969      304.71971      10184.532      3045.5687      13230.1        63292.777      87120        
     12200   12200          118.60085      296.28461      10190.19       2961.2628      13151.453      63336.091      87120        
     12300   12300          119.59003      298.18981      10191.406      2980.3046      13171.711      63356.537      87120        
     12400   12400          120.59942      300.76092      10232.657      3006.002       13238.659      63494.912      87120        
     12500   12500          121.58737      299.87519      10265.698      2997.1494      13262.847      63593.566      87120        
     12600   12600          122.61078      296.44106      10264.116      2962.8264      13226.942      63602.221      87120        
     12700   12700          123.61529      292.3102       10295.036      2921.5399      13216.575      63705.818      87120        
     12800   12800          124.60502      303.17349      10278.035      3030.1147      13308.15       63722.219      87120        
     12900   12900          125.6194       303.99465      10305.219      3038.322       13343.541      63799.318      87120        
     13000   13000          126.62099      301.65886      10278.516      3014.9766      13293.493      63670.75       87120        
     13100   13100          127.62478      296.94371      10258.011      2967.8503      13225.862      63634.708      87120        
     13200   13200          128.63147      299.56455      10232.494      2994.0446      13226.539      63491.163      87120        
     13300   13300          129.61772      307.76961      10225.419      3076.0515      13301.47       63488.547      87120        
     13400   13400          130.61441      304.27844      10221.137      3041.1583      13262.295      63399.477      87120        
     13500   13500          131.60963      298.21206      10172.39       2980.527       13152.917      63201.055      87120        
     13600   13600          132.60706      292.38346      10166.384      2922.2722      13088.656      63240.249      87120        
     13700   13700          133.58703      300.95012      10187.978      3007.8929      13195.871      63270.298      87120        
     13800   13800          134.58412      301.58323      10224.987      3014.2207      13239.207      63437.381      87120        
     13900   13900          135.58407      295.75758      10248.975      2955.9953      13204.97       63454.434      87120        
     14000   14000          136.5728       298.46995      10173.55       2983.1045      13156.655      63237.633      87120        
     14100   14100          137.56777      296.80867      10192.577      2966.5006      13159.078      63335.1        87120        
     14200   14200          138.54782      299.4022       10243.74       2992.4221      13236.162      63488.329      87120        
     14300   14300          139.56707      305.08752      10225.464      3049.2448      13274.708      63489.043      87120        
     14400   14400          140.5703       302.32079      10188.382      3021.5923      13209.974      63308.572      87120        
     14500   14500          141.55516      293.9944       10204.879      2938.3729      13143.252      63349.888      87120        
     14600   14600          142.54145      297.49838      10215.649      2973.394       13189.044      63457.612      87120        
     14700   14700          143.54675      299.35159      10209.364      2991.9162      13201.28       63397.913      87120        
     14800   14800          144.55296      295.33544      10256.732      2951.7762      13208.509      63595.18       87120        
     14900   14900          145.55921      302.39211      10217.304      3022.3051      13239.609      63500.824      87120        
     15000   15000          146.55202      299.99839      10279.63       2998.3807      13278.01       63714.405      87120        
     15100   15100          147.54478      304.38598      10280.696      3042.2332      13322.929      63694.936      87120        
     15200   15200          148.54407      297.38901      10266.229      2972.3009      13238.53       63659.691      87120        
     15300   15300          149.54416      294.56122      10245.757      2944.0381      13189.795      63574.202      87120        
     15400   15400          150.55163      301.5835       10202.114      3014.2234      13216.338      63413.725      87120        
     15500   15500          151.55331      304.8278       10202.014      3046.6491      13248.663      63434.683      87120        
     15600   15600          152.55703      305.10291      10244.967      3049.3987      13294.366      63548.771      87120        
     15700   15700          153.55161      300.98195      10238.268      3008.2111      13246.479      63457.688      87120        
     15800   15800          154.54702      297.94075      10166.284      2977.8154      13144.1        63227.094      87120        
     15900   15900          155.54547      295.06629      10196.661      2949.0861      13145.747      63333.312      87120        
     16000   16000          156.54836      303.06955      10157.13       3029.076       13186.206      63228.391      87120        
     16100   16100          157.53517      307.60768      10197.729      3074.4329      13272.162      63387.439      87120        
     16200   16200          158.53361      309.55798      10202.428      3093.9255      13296.353      63369.215      87120        
     16300   16300          159.54672      298.884        10187.435      2987.2428      13174.677      63285.628      87120        
     16400   16400          160.54678      293.74675      10212.759      2935.8977      13148.657      63417.294      87120        
     16500   16500          161.54384      297.705        10224.179      2975.4591      13199.638      63481.672      87120        
     16600   16600          162.53688      302.40935      10252.895      3022.4774      13275.372      63520.633      87120        
     16700   16700          163.52963      308.24142      10173.261      3080.767       13254.028      63294.586      87120        
     16800   16800          164.5349       301.06859      10208.618      3009.077       13217.695      63409.628      87120        
     16900   16900          165.52523      299.44934      10238.455      2992.8932      13231.348      63501.05       87120        
     17000   17000          166.52854      302.51893      10231.167      3023.5727      13254.74       63468.746      87120        
     17100   17100          167.52623      304.57679      10187.111      3044.1403      13231.251      63364.516      87120        
     17200   17200          168.50605      297.56204      10153.852      2974.0302      13127.882      63209.473      87120        
     17300   17300          169.5071       295.69972      10200.371      2955.417       13155.788      63388.333      87120        
     17400   17400          170.50436      294.4539       10314.591      2942.9655      13257.557      63779.736      87120        
     17500   17500          171.4849       306.18631      10229.949      3060.2269      13290.176      63511.521      87120        
     17600   17600          172.48728      300.63147      10233.416      3004.7082      13238.124      63518.261      87120        
     17700   17700          173.49437      300.00077      10212.994      2998.4046      13211.398      63461.649      87120        
     17800   17800          174.50931      296.26372      10238.914      2961.054       13199.968      63566.467      87120        
     17900   17900          175.50823      298.93252      10260.195      2987.7277      13247.922      63597.172      87120        
     18000   18000          176.52046      306.00999      10286.457      3058.4646      13344.922      63755.921      87120        
     18100   18100          177.51844      301.04742      10323.375      3008.8654      13332.24       63866.843      87120        
     18200   18200          178.49862      299.36385      10276.351      2992.0387      13268.389      63679.642      87120        
     18300   18300          179.49679      296.22825      10266.37       2960.6994      13227.07       63633.722      87120        
     18400   18400          180.50342      300.45721      10227.936      3002.9665      13230.902      63429.492      87120        
     18500   18500          181.49753      303.94237      10197.67       3037.7994      13235.469      63343.022      87120        
     18600   18600          182.5017       297.43523      10182.923      2972.7629      13155.686      63246.546      87120        
     18700   18700          183.50486      293.00764      10189.957      2928.5106      13118.468      63271.978      87120        
     18800   18800          184.49122      301.13413      10158.824      3009.7321      13168.556      63120.13       87120        
     18900   18900          185.49224      302.86341      10210.331      3027.0156      13237.346      63337.279      87120        
     19000   19000          186.50046      303.12933      10233.672      3029.6734      13263.346      63456.47       87120        
     19100   19100          187.47955      298.10525      10185.084      2979.4595      13164.544      63143.674      87120        
     19200   19200          188.48078      297.93647      10133.996      2977.7725      13111.769      63089.707      87120        
     19300   19300          189.47775      293.12191      10233.121      2929.6526      13162.774      63450.809      87120        
     19400   19400          190.47465      303.22598      10245.368      3030.6394      13276.007      63459.525      87120        
     19500   19500          191.47316      301.48591      10281.35       3013.248       13294.598      63690.028      87120        
     19600   19600          192.47633      304.41165      10219.874      3042.4897      13262.364      63459.886      87120        
     19700   19700          193.47669      296.59796      10229.547      2964.3946      13193.942      63478.175      87120        
     19800   19800          194.48157      295.27681      10255.899      2951.1902      13207.09       63589.328      87120        
     19900   19900          195.50566      297.07045      10281.956      2969.1169      13251.073      63679.938      87120        
     20000   20000          196.53352      302.04496      10290.992      3018.8355      13309.827      63697.542      87120        
     20100   20100          197.55007      302.38574      10278.446      3022.2415      13300.688      63702.94       87120        
     20200   20200          198.56006      298.02628      10233.046      2978.6702      13211.716      63489.762      87120        
     20300   20300          199.56575      288.98841      10309.735      2888.3397      13198.075      63730.42       87120        
     20400   20400          200.59863      304.77154      10237.165      3046.0868      13283.251      63472.093      87120        
     20500   20500          201.60967      297.47116      10264.111      2973.122       13237.233      63579.629      87120        
     20600   20600          202.60491      296.71378      10208.35       2965.5522      13173.902      63380.406      87120        
     20700   20700          203.60658      293.45985      10206.194      2933.0303      13139.225      63329.687      87120        
     20800   20800          204.58014      306.58957      10138.763      3064.2573      13203.02       63065.013      87120        
     20900   20900          205.57206      303.10219      10181.152      3029.4022      13210.554      63217.607      87120        
     21000   21000          206.55095      300.97802      10162.324      3008.1718      13170.496      63149.269      87120        
     21100   21100          207.53084      297.55815      10174.951      2973.9914      13148.942      63141.25       87120        
     21200   21200          208.51688      303.06646      10121.352      3029.0451      13150.397      62999.03       87120        
     21300   21300          209.49374      300.08521      10137.699      2999.2485      13136.947      63033.915      87120        
     21400   21400          210.48619      295.18014      10164.428      2950.224       13114.652      63093.048      87120        
     21500   21500          211.46066      299.56945      10130.898      2994.0936      13124.992      63034.364      87120        
     21600   21600          212.44978      299.21811      10187.659      2990.5821      13178.241      63234.577      87120        
     21700   21700          213.43958      301.35714      10191.513      3011.961       13203.474      63248.963      87120        
     21800   21800          214.4286       303.12899      10157.291      3029.67        13186.961      63178.996      87120        
     21900   21900          215.43515      294.6706       10206.099      2945.1313      13151.23       63390.225      87120        
     22000   22000          216.42236      294.98761      10246.345      2948.2997      13194.645      63486.076      87120        
     22100   22100          217.40969      306.22985      10259.132      3060.6621      13319.794      63643.331      87120        
     22200   22200          218.41086      304.64201      10251.787      3044.7921      13296.579      63618.987      87120        
     22300   22300          219.39609      300.61693      10263.589      3004.5629      13268.152      63644.807      87120        
     22400   22400          220.40521      300.50301      10288.443      3003.4242      13291.868      63755.921      87120        
     22500   22500          221.39594      302.24366      10246.97       3020.8215      13267.791      63632.955      87120        
     22600   22600          222.41053      294.96271      10249.697      2948.0508      13197.747      63536.742      87120        
     22700   22700          223.41711      295.77403      10232.412      2956.1597      13188.571      63501.435      87120        
     22800   22800          224.41686      308.75653      10208.343      3085.9153      13294.258      63468.368      87120        
     22900   22900          225.41872      305.8431       10200.541      3056.7966      13257.338      63371.972      87120        
     23000   23000          226.43172      298.93843      10180.59       2987.7868      13168.377      63268.881      87120        
     23100   23100          227.41817      297.17347      10176.187      2970.1466      13146.333      63289.15       87120        
     23200   23200          228.41949      298.47544      10190.97       2983.1594      13174.129      63258.147      87120        
     23300   23300          229.42488      305.86408      10141.975      3057.0063      13198.981      63099.092      87120        
     23400   23400          230.42293      301.56094      10190.289      3013.9979      13204.287      63266.742      87120        
     23500   23500          231.42625      305.0698       10182.363      3049.0678      13231.431      63177.422      87120        
     23600   23600          232.43403      305.84323      10133.18       3056.7979      13189.978      63051.718      87120        
     23700   23700          233.43445      296.7773       10138.177      2966.187       13104.364      63035.567      87120        
     23800   23800          234.42457      300.47042      10090.957      3003.0986      13094.056      62809.274      87120        
     23900   23900          235.42229      296.08896      10154.985      2959.3073      13114.292      63112.909      87120        
     24000   24000          236.41215      304.93593      10139.857      3047.7298      13187.587      63045.573      87120        
     24100   24100          237.40174      304.3014       10171.656      3041.3879      13213.043      63121.928      87120        
     24200   24200          238.36808      297.20695      10156.317      2970.4813      13126.798      63113.213      87120        
     24300   24300          239.35505      292.62514      10198.609      2924.6876      13123.297      63265.341      87120        
     24400   24400          240.34533      297.36842      10215.092      2972.0951      13187.187      63284.557      87120        
     24500   24500          241.34271      304.95921      10167.173      3047.9625      13215.135      63270.554      87120        
     24600   24600          242.33109      297.72656      10228.628      2975.6746      13204.303      63411.278      87120        
     24700   24700          243.33932      294.7835       10230.177      2946.2597      13176.436      63364.664      87120        
     24800   24800          244.33745      286.14365      10215.342      2859.9073      13075.25       63343.111      87120        
     24900   24900          245.3201       297.05118      10150.646      2968.9243      13119.57       63097.372      87120        
     25000   25000          246.31531      300.3824       10225.99       3002.2188      13228.209      63409.048      87120        
     25100   25100          247.29815      305.61929      10198.83       3054.5597      13253.39       63455.223      87120        
     25200   25200          248.28793      302.41293      10190.667      3022.5132      13213.18       63291.104      87120        
     25300   25300          249.26926      293.90312      10208.535      2937.4606      13145.996      63291.548      87120        
     25400   25400          250.25728      292.46868      10152.705      2923.1238      13075.829      63211.409      87120        
     25500   25500          251.22791      292.19626      10211.68       2920.4011      13132.081      63292.623      87120        
     25600   25600          252.21551      306.05249      10167.071      3058.8893      13225.96       63229.684      87120        
     25700   25700          253.20302      301.00388      10162.542      3008.4302      13170.972      63195.125      87120        
     25800   25800          254.19486      293.16449      10187.088      2930.0782      13117.166      63182.363      87120        
     25900   25900          255.17057      297.1629       10178.485      2970.041       13148.526      63269.464      87120        
     26000   26000          256.16061      302.17982      10174.645      3020.1834      13194.828      63235.538      87120        
     26100   26100          257.12624      303.55579      10167.16       3033.9358      13201.096      63057.515      87120        
     26200   26200          258.10986      304.2633       10110.454      3041.0071      13151.461      62953.688      87120        
     26300   26300          259.09589      298.82287      10136.436      2986.6318      13123.068      63053.191      87120        
     26400   26400          260.08275      297.06025      10151.818      2969.015       13120.833      62997.511      87120        
     26500   26500          261.06978      300.75848      10159.531      3005.9776      13165.509      63152.915      87120        
     26600   26600          262.07231      312.06633      10166.268      3118.9956      13285.264      63172.626      87120        
     26700   26700          263.05903      306.7428       10156.808      3065.7888      13222.596      63078.772      87120        
     26800   26800          264.0431       298.86438      10153.945      2987.0467      13140.991      63060.173      87120        
     26900   26900          265.03483      299.31995      10153.557      2991.5999      13145.157      63090.533      87120        
     27000   27000          266.01033      299.05788      10160.712      2988.9806      13149.693      63133.89       87120        
     27100   27100          266.99145      297.9728       10200.447      2978.1356      13178.582      63321.33       87120        
     27200   27200          267.96108      303.52492      10194.463      3033.6272      13228.09       63278.442      87120        
     27300   27300          268.94542      306.52101      10211.448      3063.5721      13275.02       63355.115      87120        
     27400   27400          269.93534      298.12165      10200.554      2979.6234      13180.177      63327.093      87120        
     27500   27500          270.93053      295.85646      10177.952      2956.9836      13134.936      63174.333      87120        
     27600   27600          271.90952      297.58108      10196.723      2974.2205      13170.944      63309.635      87120        
     27700   27700          272.92402      305.12938      10202.883      3049.6632      13252.546      63362.142      87120        
     27800   27800          273.93139      307.83786      10197.991      3076.7335      13274.724      63303.035      87120        
     27900   27900          274.92162      293.46757      10219.799      2933.1074      13152.907      63410.116      87120        
     28000   28000          275.91339      298.52917      10151.59       2983.6964      13135.286      63151.529      87120        
     28100   28100          276.89714      300.19225      10195.521      3000.3183      13195.84       63286.082      87120        
     28200   28200          277.87434      305.12008      10182.853      3049.5703      13232.423      63270.114      87120        
     28300   28300          278.85551      300.8285       10157.253      3006.6774      13163.93       63125.164      87120        
     28400   28400          279.8374       298.3513       10132.014      2981.9187      13113.933      62994.528      87120        
     28500   28500          280.8092       295.55549      10175.278      2953.9755      13129.254      63166.042      87120        
     28600   28600          281.79677      299.70908      10176.883      2995.4892      13172.372      63183.909      87120        
     28700   28700          282.78356      301.28107      10137.723      3011.2007      13148.924      63035.49       87120        
     28800   28800          283.77331      296.22389      10155.328      2960.6559      13115.984      63090.552      87120        
     28900   28900          284.77101      302.92507      10080.964      3027.6318      13108.596      62802.118      87120        
     29000   29000          285.76787      305.36417      10117.571      3052.0099      13169.581      62943.268      87120        
     29100   29100          286.75068      305.37897      10150.254      3052.1578      13202.412      63102.604      87120        
     29200   29200          287.733        300.59702      10114.226      3004.3638      13118.59       62937.572      87120        
     29300   29300          288.7159       294.98328      10161.379      2948.2564      13109.636      63123.436      87120        
     29400   29400          289.69733      300.48363      10179.101      3003.2305      13182.332      63223.706      87120        
     29500   29500          290.68724      303.64508      10182.736      3034.8282      13217.564      63240.647      87120        
     29600   29600          291.68475      299.38247      10214.141      2992.2248      13206.366      63346.092      87120        
     29700   29700          292.66994      304.20315      10161.321      3040.4058      13201.727      63256.65       87120        
     29800   29800          293.67086      296.03416      10185.741      2958.7596      13144.5        63222.207      87120        
     29900   29900          294.64955      293.58791      10171.72       2934.3102      13106.03       63234.567      87120        
     30000   30000          295.64398      301.84998      10189.794      3016.8868      13206.681      63376.594      87120        
     30100   30100          296.61559      306.5545       10204.287      3063.9068      13268.194      63366.168      87120        
     30200   30200          297.5995       296.065        10273.085      2959.0679      13232.153      63599.612      87120        
     30300   30300          298.57074      296.554        10262.576      2963.9553      13226.531      63566.557      87120        
     30400   30400          299.55982      307.81167      10245.699      3076.4718      13322.171      63520.202      87120        
     30500   30500          300.54647      313.48761      10217.602      3133.2008      13350.803      63498.911      87120        
     30600   30600          301.53675      300.88742      10227.093      3007.2663      13234.36       63388.817      87120        
     30700   30700          302.51485      300.50207      10175.219      3003.4149      13178.634      63212.137      87120        
     30800   30800          303.5048       298.07393      10148.454      2979.1464      13127.601      63079.703      87120        
     30900   30900          304.4988       295.07821      10178.501      2949.2052      13127.706      63178.514      87120        
     31000   31000          305.47727      302.80714      10154.773      3026.4532      13181.226      63118.833      87120        
     31100   31100          306.45166      307.40905      10166.041      3072.4478      13238.489      63158.685      87120        
     31200   31200          307.43448      297.08152      10200.108      2969.2276      13169.336      63211.598      87120        
     31300   31300          308.4353       294.59344      10121.315      2944.3601      13065.675      62919.466      87120        
     31400   31400          309.4375       294.16996      10153.27       2940.1276      13093.398      63051.656      87120        
     31500   31500          310.44391      302.75726      10179.718      3025.9547      13205.673      63197.9        87120        
     31600   31600          311.43141      303.7733       10158.604      3036.1097      13194.714      63164.232      87120        
     31700   31700          312.43297      300.86017      10147.672      3006.9939      13154.666      63144.659      87120        
     31800   31800          313.42152      298.39853      10156.709      2982.3907      13139.1        63091.269      87120        
     31900   31900          314.41396      299.10425      10163.552      2989.4441      13152.996      63142.207      87120        
     32000   32000          315.41235      306.09842      10147.048      3059.3484      13206.396      63127.96       87120        
     32100   32100          316.38997      305.42607      10165.408      3052.6285      13218.036      63118.886      87120        
     32200   32200          317.36179      299.42353      10117.494      2992.6352      13110.129      63017.807      87120        
     32300   32300          318.34729      297.72456      10127.621      2975.6546      13103.275      63040.89       87120        
     32400   32400          319.32746      304.13919      10120.36       3039.7666      13160.126      63052.439      87120        
     32500   32500          320.31347      300.70027      10197.753      3005.3957      13203.148      63304.044      87120        
     32600   32600          321.30321      304.04398      10218.703      3038.815       13257.518      63360.734      87120        
     32700   32700          322.27056      308.10351      10170.381      3079.3886      13249.77       63287.5        87120        
     32800   32800          323.2563       297.38334      10177.971      2972.2442      13150.215      63292.77       87120        
     32900   32900          324.23326      300.70972      10153.288      3005.4903      13158.779      63166.37       87120        
     33000   33000          325.22606      300.81717      10184.933      3006.5642      13191.498      63240.185      87120        
     33100   33100          326.21023      304.8634       10207.08       3047.0049      13254.085      63409.292      87120        
     33200   33200          327.1788       303.18937      10232.446      3030.2735      13262.719      63418.523      87120        
     33300   33300          328.15928      293.46229      10251.599      2933.0547      13184.654      63543.568      87120        
     33400   33400          329.12632      297.72222      10209.11       2975.6312      13184.742      63470.834      87120        
     33500   33500          330.11216      306.47566      10220.93       3063.1189      13284.049      63486.634      87120        
     33600   33600          331.08248      305.05708      10241.319      3048.9406      13290.259      63523.238      87120        
     33700   33700          332.06784      305.57832      10216.933      3054.1502      13271.083      63501.44       87120        
     33800   33800          333.07714      298.64106      10220.449      2984.8147      13205.263      63399.262      87120        
     33900   33900          334.07546      299.29829      10175.848      2991.3835      13167.232      63252.96       87120        
     34000   34000          335.06657      294.54007      10246.315      2943.8267      13190.142      63491.782      87120        
     34100   34100          336.04253      306.90161      10191.141      3067.376       13258.517      63217.793      87120        
     34200   34200          337.0347       301.45749      10174.876      3012.964       13187.84       63228.563      87120        
     34300   34300          338.01717      298.10256      10156.088      2979.4325      13135.521      63162.745      87120        
     34400   34400          339.00104      298.61586      10134.837      2984.5628      13119.4        62993.359      87120        
     34500   34500          339.98884      304.93487      10150.183      3047.7192      13197.902      63079.243      87120        
     34600   34600          340.99728      308.28932      10151.269      3081.2457      13232.514      63142.714      87120        
     34700   34700          341.99055      300.42887      10160.321      3002.6832      13163.004      63025.934      87120        
     34800   34800          342.97751      297.04038      10150.013      2968.8165      13118.83       63084.615      87120        
     34900   34900          343.96313      300.45447      10146.505      3002.9391      13149.444      63111.97       87120        
     35000   35000          344.95434      302.94336      10155.771      3027.8147      13183.585      63044.864      87120        
     35100   35100          345.91824      297.76857      10195.106      2976.0945      13171.2        63270.185      87120        
     35200   35200          346.91058      293.08727      10171.16       2929.3064      13100.466      63137.19       87120        
     35300   35300          347.89086      292.88077      10239.655      2927.2426      13166.898      63423.839      87120        
     35400   35400          348.859        299.45776      10265.449      2992.9773      13258.426      63527.888      87120        
     35500   35500          349.8447       306.70078      10188.765      3065.3688      13254.134      63263.909      87120        
     35600   35600          350.82984      296.39895      10212.091      2962.4055      13174.497      63377.667      87120        
     35700   35700          351.81364      299.58047      10205.556      2994.2038      13199.76       63367.804      87120        
     35800   35800          352.80573      304.00041      10186.596      3038.3795      13224.975      63246.509      87120        
     35900   35900          353.79825      300.97332      10219.056      3008.1248      13227.181      63350.224      87120        
     36000   36000          354.78982      295.33236      10144.414      2951.7454      13096.159      63086.582      87120        
     36100   36100          355.74646      290.00044      10195.754      2898.4547      13094.209      63215.062      87120        
     36200   36200          356.72253      303.05021      10134.479      3028.8826      13163.361      63050.08       87120        
     36300   36300          357.70126      301.55272      10175.648      3013.9158      13189.564      63221.978      87120        
     36400   36400          358.68111      297.37205      10176.173      2972.1314      13148.304      63247.377      87120        
     36500   36500          359.66428      292.22786      10167.588      2920.717       13088.305      63149.722      87120        
     36600   36600          360.65342      297.67258      10111.878      2975.1351      13087.014      63037.305      87120        
     36700   36700          361.65888      302.38706      10113.547      3022.2546      13135.801      62956.986      87120        
     36800   36800          362.65535      307.08542      10135.271      3069.2132      13204.485      63116.654      87120        
     36900   36900          363.64073      302.95534      10180.028      3027.9344      13207.963      63285.472      87120        
     37000   37000          364.62556      298.78805      10140.886      2986.2838      13127.17       63102.089      87120        
     37100   37100          365.5848       292.76926      10163.899      2926.128       13090.027      63157.554      87120        
     37200   37200          366.55905      302.0511       10174.051      3018.8969      13192.947      63236.714      87120        
     37300   37300          367.56128      309.87781      10109.647      3097.1221      13206.769      63016.142      87120        
     37400   37400          368.54934      297.60275      10167.263      2974.4371      13141.7        63196.456      87120        
     37500   37500          369.53646      296.89146      10146.186      2967.328       13113.514      63092.695      87120        
     37600   37600          370.53284      300.56676      10175.018      3004.0614      13179.08       63216.873      87120        
     37700   37700          371.5172       304.42875      10231.7        3042.6606      13274.361      63462.006      87120        
     37800   37800          372.50545      308.58887      10186.65       3084.2397      13270.89       63298.613      87120        
     37900   37900          373.50274      297.508        10164.447      2973.4902      13137.937      63227.399      87120        
     38000   38000          374.48649      295.36039      10185.398      2952.0255      13137.424      63282.2        87120        
     38100   38100          375.46459      300.9752       10190.425      3008.1436      13198.569      63271.5        87120        
     38200   38200          376.4448       303.48362      10209.639      3033.2144      13242.854      63343.941      87120        
     38300   38300          377.44386      301.95009      10191.918      3017.8873      13209.805      63322.698      87120        
     38400   38400          378.42722      299.09874      10118.346      2989.389       13107.735      63004.471      87120        
     38500   38500          379.40469      292.68776      10166.065      2925.3135      13091.379      63130.095      87120        
     38600   38600          380.3964       300.99279      10136.254      3008.3194      13144.574      63065.439      87120        
     38700   38700          381.35758      301.64171      10146.831      3014.8052      13161.636      63053.926      87120        
     38800   38800          382.33413      301.48808      10131.466      3013.2697      13144.735      62968.329      87120        
     38900   38900          383.30684      293.86195      10131.85       2937.0491      13068.9        62967.514      87120        
     39000   39000          384.28899      288.63329      10075.214      2884.7905      12960.005      62701.859      87120        
     39100   39100          385.26242      291.84361      10153.817      2916.8765      13070.694      63029.947      87120        
     39200   39200          386.22184      300.77027      10166.237      3006.0954      13172.333      63143.205      87120        
     39300   39300          387.20178      304.16872      10138.78       3040.0618      13178.841      63073.591      87120        
     39400   39400          388.18128      301.85036      10086.992      3016.8905      13103.882      62874.417      87120        
     39500   39500          389.15377      295.0909       10114.757      2949.3321      13064.089      62971.593      87120        
     39600   39600          390.1392       299.2877       10132.568      2991.2776      13123.846      63051.873      87120        
     39700   39700          391.1252       303.32831      10211.784      3031.6622      13243.446      63330.6        87120        
     39800   39800          392.09712      306.02596      10193.82       3058.6242      13252.444      63347.979      87120        
     39900   39900          393.08712      304.36179      10155.588      3041.9914      13197.579      63205.269      87120        
     40000   40000          394.06507      294.76925      10222.247      2946.1173      13168.364      63414.757      87120        
     40100   40100          395.03259      302.88473      10192.396      3027.2287      13219.625      63390.24       87120        
     40200   40200          396.00523      305.94061      10181.312      3057.7712      13239.083      63321.891      87120        
     40300   40300          396.96171      301.56131      10184.252      3014.0016      13198.254      63295.429      87120        
     40400   40400          397.93803      293.79386      10192.388      2936.3686      13128.757      63275.057      87120        
     40500   40500          398.92212      297.11188      10114.441      2969.531       13083.972      63002.016      87120        
     40600   40600          399.90926      298.73471      10147.975      2985.7507      13133.725      63083.812      87120        
     40700   40700          400.8936       301.51446      10183.676      3013.5334      13197.21       63199.926      87120        
     40800   40800          401.88819      305.02839      10131.324      3048.6538      13179.978      63018.115      87120        
     40900   40900          402.86838      294.37288      10145.044      2942.1557      13087.199      62965.349      87120        
     41000   41000          403.83819      295.45395      10112.809      2952.9606      13065.77       62888.062      87120        
     41100   41100          404.80215      296.85648      10129.529      2966.9784      13096.507      62916.928      87120        
     41200   41200          405.77381      303.99787      10080.277      3038.3541      13118.631      62773.064      87120        
     41300   41300          406.74618      296.49533      10126.09       2963.3689      13089.458      62990.109      87120        
     41400   41400          407.73605      301.05292      10078.171      3008.9204      13087.091      62746.467      87120        
     41500   41500          408.72046      299.51205      10149.46       2993.52        13142.98       62996.162      87120        
     41600   41600          409.72427      309.7308       10091.893      3095.6528      13187.546      62903.93       87120        
     41700   41700          410.70815      298.34229      10110.733      2981.8286      13092.561      62881.065      87120        
     41800   41800          411.68699      298.89188      10044.652      2987.3216      13031.974      62693.728      87120        
     41900   41900          412.66174      294.9747       10095.084      2948.1707      13043.255      62858.963      87120        
     42000   42000          413.63875      302.50751      10090.037      3023.4586      13113.496      62750.819      87120        
     42100   42100          414.60608      301.48451      10133.148      3013.234       13146.382      63028.211      87120        
     42200   42200          415.5944       297.61834      10168.249      2974.5929      13142.842      63151.725      87120        
     42300   42300          416.56333      302.68611      10150.105      3025.2435      13175.348      63073.221      87120        
     42400   42400          417.54298      305.24069      10176.049      3050.7758      13226.824      63215.66       87120        
     42500   42500          418.518        308.14612      10145.806      3079.8145      13225.62       63093.473      87120        
     42600   42600          419.47612      297.08541      10158.464      2969.2665      13127.73       63131.658      87120        
     42700   42700          420.44688      295.50123      10165.134      2953.4332      13118.567      63140.063      87120        
     42800   42800          421.41767      303.15153      10170.145      3029.8953      13200.04       63289.123      87120        
     42900   42900          422.37384      304.27221      10175.523      3041.0961      13216.619      63214.515      87120        
     43000   43000          423.34533      297.29094      10193.864      2971.3207      13165.184      63241.901      87120        
     43100   43100          424.30034      291.01122      10204.96       2908.5571      13113.518      63286.744      87120        
     43200   43200          425.26577      294.41709      10206.542      2942.5976      13149.14       63251.76       87120        
     43300   43300          426.21724      305.71661      10163.513      3055.5324      13219.045      63142.9        87120        
     43400   43400          427.17919      301.91582      10165.74       3017.5448      13183.285      63232.788      87120        
     43500   43500          428.15142      294.94975      10138.527      2947.9213      13086.449      62955.887      87120        
     43600   43600          429.12714      298.6681       10088.868      2985.085       13073.953      62914.01       87120        
     43700   43700          430.10288      295.79479      10125.374      2956.3672      13081.741      62951.469      87120        
     43800   43800          431.06193      304.28258      10037.336      3041.1998      13078.536      62558.994      87120        
     43900   43900          432.03187      301.73364      10052.053      3015.724       13067.777      62679.225      87120        
     44000   44000          433.0022       302.22486      10097.676      3020.6335      13118.309      62820.695      87120        
     44100   44100          433.95983      299.1571       10110.387      2989.9724      13100.359      62861.292      87120        
     44200   44200          434.91159      299.36212      10038.342      2992.0214      13030.364      62671.748      87120        
     44300   44300          435.87846      295.73544      10087.666      2955.774       13043.44       62824.869      87120        
     44400   44400          436.8277       303.01637      10126.179      3028.5444      13154.723      62942.073      87120        
     44500   44500          437.79244      302.19652      10134.089      3020.3503      13154.439      62981.364      87120        
     44600   44600          438.75574      303.67712      10108.387      3035.1484      13143.536      62922.403      87120        
     44700   44700          439.72469      295.98927      10143.437      2958.3109      13101.748      62969.686      87120        
     44800   44800          440.70245      300.47157      10093.141      3003.11        13096.251      62882.147      87120        
     44900   44900          441.67008      298.80718      10157.024      2986.475       13143.499      63090.368      87120        
     45000   45000          442.65329      309.71905      10189.165      3095.5354      13284.7        63210.73       87120        
     45100   45100          443.62526      304.90105      10198.638      3047.3811      13246.019      63229.458      87120        
     45200   45200          444.60978      299.79154      10194.216      2996.3133      13190.53       63182.048      87120        
     45300   45300          445.55624      301.17161      10143.387      3010.1067      13153.494      63026.799      87120        
     45400   45400          446.5206       295.26236      10151.773      2951.0457      13102.818      63095.768      87120        
     45500   45500          447.47277      301.46537      10095.553      3013.0427      13108.596      62868.191      87120        
     45600   45600          448.45106      307.06512      10148.905      3069.0103      13217.915      63054.196      87120        
     45700   45700          449.41284      306.86472      10158.506      3067.0073      13225.514      63116.462      87120        
     45800   45800          450.38518      303.26998      10133.743      3031.0791      13164.822      63099.74       87120        
     45900   45900          451.35965      299.12808      10112.489      2989.6822      13102.171      62871.33       87120        
     46000   46000          452.339        301.46638      10078.984      3013.0528      13092.037      62770.842      87120        
     46100   46100          453.3015       306.12452      10047.569      3059.6093      13107.179      62648.819      87120        
     46200   46200          454.25202      298.56551      10071.222      2984.0595      13055.282      62742.473      87120        
     46300   46300          455.22466      291.97526      10041.039      2918.1923      12959.232      62692.003      87120        
     46400   46400          456.18873      294.85341      10081.391      2946.9584      13028.349      62802.858      87120        
     46500   46500          457.14527      299.28452      10106.068      2991.2458      13097.314      62837.216      87120        
     46600   46600          458.10455      302.99915      10090.605      3028.3723      13118.977      62899.361      87120        
     46700   46700          459.06835      302.73903      10063.546      3025.7725      13089.319      62734.595      87120        
     46800   46800          460.02715      292.68447      10144.286      2925.2806      13069.567      62990.76       87120        
     46900   46900          460.99602      299.44191      10106.075      2992.819       13098.894      62873.551      87120        
     47000   47000          461.97004      303.94975      10147.537      3037.8732      13185.41       63085.558      87120        
     47100   47100          462.91951      302.79841      10153.073      3026.3659      13179.439      63074.531      87120        
     47200   47200          463.88115      295.50473      10146.921      2953.4681      13100.389      63087.426      87120        
     47300   47300          464.83726      296.65937      10131.997      2965.0083      13097.005      63059.21       87120        
     47400   47400          465.77589      294.59045      10179.248      2944.3302      13123.578      63186.415      87120        
     47500   47500          466.73024      301.5345       10153.34       3013.7336      13167.073      63106.841      87120        
     47600   47600          467.67385      302.1801       10164.439      3020.1862      13184.625      63189.3        87120        
     47700   47700          468.63329      295.45226      10118.297      2952.9437      13071.24       63007.423      87120        
     47800   47800          469.58186      293.81939      10132.342      2936.6237      13068.966      63012.12       87120        
     47900   47900          470.54111      297.06104      10179.857      2969.0229      13148.88       63203.989      87120        
     48000   48000          471.4974       304.34035      10145.447      3041.7771      13187.224      63107.835      87120        
     48100   48100          472.43048      302.57836      10154.572      3024.1666      13178.739      63138.405      87120        
     48200   48200          473.39203      300.13975      10110.319      2999.7936      13110.113      62935.227      87120        
     48300   48300          474.35847      289.20876      10120.744      2890.5421      13011.286      62872.952      87120        
     48400   48400          475.33195      297.11979      10107.555      2969.6101      13077.165      62924.255      87120        
     48500   48500          476.29841      299.4743       10153.395      2993.1427      13146.538      63083.233      87120        
     48600   48600          477.26413      301.19363      10159.495      3010.3267      13169.822      63095.98       87120        
     48700   48700          478.2135       298.71385      10192.732      2985.5423      13178.274      63240.393      87120        
     48800   48800          479.18222      303.13378      10196.447      3029.7179      13226.165      63158.696      87120        
     48900   48900          480.15049      311.756        10169.787      3115.894       13285.681      63139.735      87120        
     49000   49000          481.10936      301.89399      10178.614      3017.3266      13195.941      63163.171      87120        
     49100   49100          482.04891      298.7446       10169.621      2985.8496      13155.47       63108.617      87120        
     49200   49200          482.98108      298.45214      10185.391      2982.9265      13168.318      63231.571      87120        
     49300   49300          483.93192      296.47532      10224.228      2963.1688      13187.397      63245.308      87120        
     49400   49400          484.89651      304.0467       10178.434      3038.8422      13217.276      63148.435      87120        
     49500   49500          485.83265      308.84337      10171.702      3086.7833      13258.485      63058.9        87120        
     49600   49600          486.79819      300.50523      10170.38       3003.4464      13173.826      63063.471      87120        
     49700   49700          487.75307      294.11796      10156.45       2939.6078      13096.057      62963.055      87120        
     49800   49800          488.70842      299.90642      10117.767      2997.4616      13115.229      62870.085      87120        
     49900   49900          489.6626       304.58866      10120.834      3044.2589      13165.093      62948.647      87120        
     50000   50000          490.62437      308.60157      10089.971      3084.3665      13174.338      62708.057      87120        
     50100   50100          491.57421      302.43456      10010.769      3022.7295      13033.498      62515.739      87120        
     50200   50200          492.52279      292.47769      10098.321      2923.2139      13021.535      62777.154      87120        
     50300   50300          493.47305      300.63313      10074.646      3004.7247      13079.371      62655.287      87120        
     50400   50400          494.43007      305.77983      10060.206      3056.1643      13116.371      62695.978      87120        
     50500   50500          495.39889      299.60926      10084.358      2994.4915      13078.85       62711.826      87120        
     50600   50600          496.35953      293.57793      10137.776      2934.2105      13071.986      62961.479      87120        
     50700   50700          497.31775      306.44934      10099.125      3062.8558      13161.981      62928.566      87120        
     50800   50800          498.2715       310.59322      10134.061      3104.2724      13238.333      62961.722      87120        
     50900   50900          499.22477      301.3198       10176.054      3011.5878      13187.642      63046.712      87120        
     51000   51000          500.18223      303.59837      10109.384      3034.3613      13143.745      62865.686      87120        
     51100   51100          501.12871      292.01683      10202.919      2918.6078      13121.527      63207.072      87120        
     51200   51200          502.08613      298.04236      10196.952      2978.8309      13175.783      63176.54       87120        
     51300   51300          503.04478      303.21233      10198.579      3030.503       13229.082      63216.608      87120        
     51400   51400          503.97894      301.59498      10201.277      3014.3381      13215.616      63219.32       87120        
     51500   51500          504.92446      300.80259      10164.636      3006.4184      13171.055      63061.262      87120        
     51600   51600          505.87591      295.78416      10180.73       2956.261       13136.991      63134.171      87120        
     51700   51700          506.82387      304.12653      10135.36       3039.6401      13175          62947.941      87120        
     51800   51800          507.75958      300.07766      10169.054      2999.173       13168.227      63036.644      87120        
     51900   51900          508.70698      291.4196       10173.659      2912.6387      13086.298      63085.281      87120        
     52000   52000          509.64118      297.52464      10116.982      2973.6565      13090.639      62855.649      87120        
     52100   52100          510.5831       301.63316      10151.538      3014.7197      13166.258      63044.936      87120        
     52200   52200          511.52736      299.36597      10164.636      2992.0599      13156.696      63062.14       87120        
     52300   52300          512.47233      303.68908      10086.295      3035.2679      13121.563      62822.188      87120        
     52400   52400          513.41688      292.06317      10128.278      2919.0709      13047.348      62912.788      87120        
     52500   52500          514.34591      286.05827      10102.183      2859.054       12961.237      62788.727      87120        
     52600   52600          515.29003      297.02408      10077.703      2968.6536      13046.357      62695.985      87120        
     52700   52700          516.24057      300.33574      10105.54       3001.7525      13107.292      62791.27       87120        
     52800   52800          517.20175      299.38583      10124.548      2992.2584      13116.807      62878.536      87120        
     52900   52900          518.1491       299.49987      10128.05       2993.3982      13121.449      62879.554      87120        
     53000   53000          519.11599      296.27505      10134.823      2961.1673      13095.99       62845.367      87120        
     53100   53100          520.0406       295.50348      10090.634      2953.4557      13044.09       62763.778      87120        
     53200   53200          520.9793       298.43147      10108.946      2982.7199      13091.666      62833.637      87120        
     53300   53300          521.92308      305.99751      10131.54       3058.3399      13189.88       62946.2        87120        
     53400   53400          522.864        302.93107      10135.382      3027.6918      13163.074      62916.559      87120        
     53500   53500          523.81664      297.71569      10128.846      2975.566       13104.412      62899.06       87120        
     53600   53600          524.76408      295.30788      10150.185      2951.5007      13101.686      62960.074      87120        
     53700   53700          525.72922      304.2303       10094.494      3040.6773      13135.171      62797.877      87120        
     53800   53800          526.69096      294.8552       10162.281      2946.9763      13109.258      63018.095      87120        
     53900   53900          527.65455      288.05425      10181.856      2879.0032      13060.859      63017.609      87120        
     54000   54000          528.62194      299.34305      10178.664      2991.8309      13170.495      63023.337      87120        
     54100   54100          529.57766      303.5637       10162.961      3034.0148      13196.976      63067.337      87120        
     54200   54200          530.53056      301.03626      10150.072      3008.7539      13158.826      62971.246      87120        
     54300   54300          531.49097      299.71468      10117.352      2995.5451      13112.897      62808.518      87120        
     54400   54400          532.46369      293.33212      10106.818      2931.7537      13038.572      62829.896      87120        
     54500   54500          533.40557      294.47451      10116.206      2943.1715      13059.377      62774.828      87120        
     54600   54600          534.37124      307.24503      10102.941      3070.8084      13173.75       62815.914      87120        
     54700   54700          535.33031      299.37809      10130.231      2992.181       13122.412      62898.347      87120        
     54800   54800          536.28678      299.92157      10064.62       2997.613       13062.233      62648.608      87120        
     54900   54900          537.2404       295.58265      10116.337      2954.247       13070.584      62789.721      87120        
     55000   55000          538.19797      303.79791      10155.926      3036.3557      13192.282      62959.06       87120        
     55100   55100          539.14573      303.48272      10184.45       3033.2054      13217.656      63098.834      87120        
     55200   55200          540.1046       306.46413      10136.482      3063.0036      13199.485      62930.838      87120        
     55300   55300          541.06199      300.24686      10183.484      3000.8641      13184.348      63125.916      87120        
     55400   55400          542.01728      301.70105      10122.23       3015.3983      13137.629      62937.202      87120        
     55500   55500          542.9682       294.67604      10141.801      2945.1857      13086.986      62917.372      87120        
     55600   55600          543.91576      296.51242      10135.338      2963.5397      13098.877      63028.674      87120        
     55700   55700          544.85928      306.87351      10145.626      3067.0952      13212.721      63033.794      87120        
     55800   55800          545.81154      303.70466      10177.821      3035.4236      13213.244      63126.447      87120        
     55900   55900          546.76215      295.17187      10190.275      2950.1413      13140.416      63216.437      87120        
     56000   56000          547.71431      298.7941       10146.294      2986.3443      13132.638      62978.906      87120        
     56100   56100          548.65546      303.34259      10113.053      3031.8049      13144.858      62921.71       87120        
     56200   56200          549.60687      300.55368      10122.15       3003.9307      13126.081      62974.68       87120        
     56300   56300          550.53821      290.873        10136.291      2907.1756      13043.467      62952.444      87120        
     56400   56400          551.49823      296.26903      10153.962      2961.107       13115.069      63098.76       87120        
     56500   56500          552.44652      305.45481      10133.069      3052.9158      13185.985      63015.377      87120        
     56600   56600          553.38146      298.78663      10185.203      2986.2697      13171.473      63197.331      87120        
     56700   56700          554.34806      297.16619      10150.839      2970.0739      13120.913      63040.199      87120        
     56800   56800          555.29865      293.47778      10175.735      2933.2095      13108.944      63164.231      87120        
     56900   56900          556.24609      304.8677       10136.439      3047.0479      13183.487      63062.418      87120        
     57000   57000          557.196        300.08756      10178.941      2999.272       13178.213      63072.163      87120        
[...]
    486300   486300         3697.0632      293.04123      9359.2331      2928.8463      12288.079      58782.373      87120        
    486400   486400         3697.5282      298.4903       9339.5672      2983.3079      12322.875      58715.308      87120        
    486500   486500         3698.001       297.55389      9369.3741      2973.9488      12343.323      58769.625      87120        
    486600   486600         3698.4737      302.82891      9308.5545      3026.6708      12335.225      58511.571      87120        
    486700   486700         3698.9478      297.39801      9345.708       2972.3909      12318.099      58651.527      87120        
    486800   486800         3699.4174      301.74747      9315.0278      3015.8622      12330.89       58544.615      87120        
    486900   486900         3699.8883      299.12549      9317.9058      2989.6564      12307.562      58550.152      87120        
    487000   487000         3700.3763      297.42759      9317.1333      2972.6865      12289.82       58542.353      87120        
    487100   487100         3700.8742      296.88903      9345.9092      2967.3038      12313.213      58606.577      87120        
    487200   487200         3701.3499      302.64584      9351.6274      3024.8411      12376.469      58703.37       87120        
    487300   487300         3701.8228      303.61891      9353.9934      3034.5666      12388.56       58743.932      87120        
    487400   487400         3702.2949      296.07238      9393.02        2959.1416      12352.162      58828.35       87120        
    487500   487500         3702.7667      299.22421      9401.4834      2990.6431      12392.126      58959.94       87120        
    487600   487600         3703.2326      302.62399      9401.5895      3024.6227      12426.212      58916.359      87120        
    487700   487700         3703.72        300.20084      9407.8063      3000.4042      12408.21       58947.965      87120        
    487800   487800         3704.2131      298.02495      9405.828       2978.6569      12384.485      58928.219      87120        
    487900   487900         3704.702       298.08802      9366.9741      2979.2872      12346.261      58737.84       87120        
    488000   488000         3705.1768      298.99747      9323.9194      2988.3769      12312.296      58625.24       87120        
    488100   488100         3705.6517      297.55625      9401.3468      2973.9723      12375.319      58873.083      87120        
    488200   488200         3706.1246      303.8884       9365.3803      3037.26        12402.64       58757.823      87120        
    488300   488300         3706.5954      303.50389      9308.9544      3033.417       12342.371      58560.726      87120        
    488400   488400         3707.068       292.56452      9334.8888      2924.0817      12258.971      58564.185      87120        
    488500   488500         3707.5459      292.92874      9403.5514      2927.722       12331.273      58817.258      87120        
    488600   488600         3708.0341      307.27258      9363.338       3071.0838      12434.422      58711.045      87120        
    488700   488700         3708.5012      301.28951      9357.887       3011.285       12369.172      58764.994      87120        
    488800   488800         3708.9776      296.99554      9341.5808      2968.3683      12309.949      58704.52       87120        
    488900   488900         3709.4558      298.93651      9319.0827      2987.7676      12306.85       58600.699      87120        
    489000   489000         3709.9326      302.54368      9343.3261      3023.82        12367.146      58740.48       87120        
    489100   489100         3710.4076      306.33828      9354.8624      3061.7457      12416.608      58743.865      87120        
    489200   489200         3710.8815      297.9142       9353.8476      2977.55        12331.398      58778.383      87120        
    489300   489300         3711.3415      291.8931       9323.1238      2917.3711      12240.495      58614.933      87120        
    489400   489400         3711.8045      300.17798      9292.57        3000.1757      12292.746      58394.835      87120        
    489500   489500         3712.2749      305.12341      9303.5369      3049.6036      12353.14       58581.876      87120        
    489600   489600         3712.7467      300.82638      9339.9198      3006.6562      12346.576      58582.531      87120        
    489700   489700         3713.2111      300.4463       9323.2755      3002.8575      12326.133      58513.111      87120        
    489800   489800         3713.6817      302.01636      9299.9181      3018.5497      12318.468      58524.288      87120        
    489900   489900         3714.1447      302.64012      9288.6196      3024.7839      12313.404      58404.406      87120        
    490000   490000         3714.6085      293.70868      9345.5988      2935.5172      12281.116      58696.439      87120        
    490100   490100         3715.0761      300.49219      9300.8608      3003.3161      12304.177      58506.853      87120        
    490200   490200         3715.5338      304.22881      9359.4454      3040.6624      12400.108      58737.638      87120        
    490300   490300         3716.0022      305.00084      9368.4548      3048.3786      12416.833      58843.785      87120        
    490400   490400         3716.4672      302.23844      9364.3454      3020.7693      12385.115      58824.219      87120        
    490500   490500         3716.9371      304.13748      9307.5966      3039.7495      12347.346      58654.11       87120        
    490600   490600         3717.4018      294.23379      9381.7044      2940.7655      12322.47       58897.988      87120        
    490700   490700         3717.8768      297.27574      9391.0143      2971.1688      12362.183      58958.9        87120        
    490800   490800         3718.349       308.27537      9367.4155      3081.1063      12448.522      58839.245      87120        
    490900   490900         3718.8192      302.03809      9392.377       3018.7668      12411.144      58779.288      87120        
    491000   491000         3719.2941      299.82374      9343.0715      2996.6352      12339.707      58717.042      87120        
    491100   491100         3719.7566      297.35704      9309.0064      2971.9814      12280.988      58551.039      87120        
    491200   491200         3720.225       297.97033      9296.3602      2978.111       12274.471      58451.221      87120        
    491300   491300         3720.6936      301.33529      9325.0868      3011.7425      12336.829      58623.64       87120        
    491400   491400         3721.1613      311.7333       9331.3407      3115.6672      12447.008      58633.465      87120        
    491500   491500         3721.6394      306.31224      9327.7891      3061.4855      12389.275      58675.857      87120        
    491600   491600         3722.1158      303.17193      9318.6057      3030.0992      12348.705      58618.175      87120        
    491700   491700         3722.6037      297.0651       9363.3544      2969.0635      12332.418      58738.605      87120        
    491800   491800         3723.083       298.88443      9371.7971      2987.2471      12359.044      58859.398      87120        
    491900   491900         3723.5628      303.16743      9369.8524      3030.0542      12399.907      58780.146      87120        
    492000   492000         3724.0521      306.98577      9345.2403      3068.2172      12413.457      58816.913      87120        
    492100   492100         3724.5328      294.86043      9375.2419      2947.0286      12322.27       58904.269      87120        
    492200   492200         3725.0056      293.41953      9329.3368      2932.6273      12261.964      58627.786      87120        
    492300   492300         3725.4771      298.56631      9347.1297      2984.0676      12331.197      58696.527      87120        
    492400   492400         3725.947       303.06496      9312.073       3029.03        12341.103      58514.782      87120        
    492500   492500         3726.4241      302.3622       9298.5119      3022.0062      12320.518      58504.444      87120        
    492600   492600         3726.895       297.35693      9278.0999      2971.9802      12250.08       58420.628      87120        
    492700   492700         3727.3658      295.16463      9270.292       2950.069       12220.361      58354.274      87120        
    492800   492800         3727.8344      309.98244      9246.1119      3098.1679      12344.28       58382.858      87120        
    492900   492900         3728.3155      306.90714      9282.592       3067.4313      12350.023      58496.342      87120        
    493000   493000         3728.7879      295.78222      9342.7959      2956.2416      12299.038      58670.377      87120        
    493100   493100         3729.2584      300.182        9339.8399      3000.2159      12340.056      58687.631      87120        
    493200   493200         3729.7366      304.93358      9328.4709      3047.7063      12376.177      58641.583      87120        
    493300   493300         3730.2085      294.71093      9403.1072      2945.5344      12348.642      58915.588      87120        
    493400   493400         3730.6879      296.23725      9355.8765      2960.7894      12316.666      58766.276      87120        
    493500   493500         3731.1581      295.3916       9404.3596      2952.3374      12356.697      58954.517      87120        
    493600   493600         3731.6397      300.3506       9426.3832      3001.9009      12428.284      59012.117      87120        
    493700   493700         3732.1175      297.5623       9413.6986      2974.0328      12387.731      58921.424      87120        
    493800   493800         3732.588       299.83652      9359.7724      2996.7629      12356.535      58766.01       87120        
    493900   493900         3733.0604      300.73503      9288.9296      3005.7432      12294.673      58385.614      87120        
    494000   494000         3733.528       291.96748      9289.5379      2918.1146      12207.653      58385.901      87120        
    494100   494100         3733.9984      301.31882      9272.489       3011.578       12284.067      58363.265      87120        
    494200   494200         3734.4618      301.52833      9315.2732      3013.6719      12328.945      58506.335      87120        
    494300   494300         3734.9359      301.08657      9321.6293      3009.2567      12330.886      58622.45       87120        
    494400   494400         3735.4008      296.34776      9363.4604      2961.894       12325.354      58746.972      87120        
    494500   494500         3735.8753      302.96459      9362.7905      3028.0268      12390.817      58725.989      87120        
    494600   494600         3736.3484      309.96448      9400.1442      3097.9884      12498.133      58987.328      87120        
    494700   494700         3736.8325      301.64819      9405.601       3014.8699      12420.471      58958.19       87120        
    494800   494800         3737.3226      295.63255      9428.9877      2954.7457      12383.733      59058.734      87120        
    494900   494900         3737.8068      298.79093      9386.8448      2986.3126      12373.157      58968.497      87120        
    495000   495000         3738.2883      299.30413      9400.8051      2991.4419      12392.247      58956.088      87120        
    495100   495100         3738.7633      308.89471      9379.2941      3087.2964      12466.591      58894.586      87120        
    495200   495200         3739.2314      303.53638      9407.4922      3033.7417      12441.234      59008.36       87120        
    495300   495300         3739.7053      295.13955      9360.8571      2949.8183      12310.675      58802.57       87120        
    495400   495400         3740.1724      295.14858      9345.3419      2949.9086      12295.25       58665.085      87120        
    495500   495500         3740.6396      302.28305      9334.7047      3021.2152      12355.92       58645.74       87120        
    495600   495600         3741.1205      299.77865      9362.7152      2996.1845      12358.9        58759.359      87120        
    495700   495700         3741.6016      300.85204      9319.9613      3006.9127      12326.874      58585.332      87120        
    495800   495800         3742.074       299.75735      9316.9338      2995.9716      12312.905      58623.577      87120        
    495900   495900         3742.5421      294.52959      9342.5898      2943.722       12286.312      58683.19       87120        
    496000   496000         3743.0198      291.81972      9360.9092      2916.6378      12277.547      58764.87       87120        
    496100   496100         3743.4891      301.24475      9365.5356      3010.8377      12376.373      58820.276      87120        
    496200   496200         3743.9648      304.53844      9354.1531      3043.757       12397.91       58728.237      87120        
    496300   496300         3744.4316      293.63901      9422.362       2934.821       12357.183      58993.448      87120        
    496400   496400         3744.9096      298.78652      9359.3355      2986.2685      12345.604      58796.829      87120        
    496500   496500         3745.3799      294.87432      9355.2008      2947.1674      12302.368      58742.327      87120        
    496600   496600         3745.858       297.14413      9324.4515      2969.8534      12294.305      58667.365      87120        
    496700   496700         3746.3246      301.60492      9353.6098      3014.4375      12368.047      58768.626      87120        
    496800   496800         3746.802       308.66991      9305.9235      3085.0496      12390.973      58613.161      87120        
    496900   496900         3747.2785      295.54406      9326.4216      2953.8612      12280.283      58599.972      87120        
    497000   497000         3747.7522      291.81999      9374.2151      2916.6404      12290.856      58771.304      87120        
    497100   497100         3748.2228      301.14296      9339.3492      3009.8203      12349.169      58643.231      87120        
    497200   497200         3748.6929      303.74321      9320.0993      3035.809       12355.908      58564.982      87120        
    497300   497300         3749.1633      294.28986      9357.4315      2941.326       12298.758      58764.494      87120        
    497400   497400         3749.6294      289.05947      9374.715       2889.05        12263.765      58762.979      87120        
    497500   497500         3750.1028      306.65919      9337.3184      3064.9532      12402.272      58671.072      87120        
    497600   497600         3750.5675      302.14812      9377.8988      3019.8666      12397.765      58834.939      87120        
    497700   497700         3751.0423      300.83931      9344.8213      3006.7854      12351.607      58722.315      87120        
    497800   497800         3751.5058      291.93675      9420.1503      2917.8075      12337.958      58992.743      87120        
    497900   497900         3751.9791      308.76082      9342.3074      3085.9582      12428.266      58699.961      87120        
    498000   498000         3752.444       304.86922      9367.9547      3047.063       12415.018      58719.165      87120        
    498100   498100         3752.916       297.8111       9379.4103      2976.5195      12355.93       58828.828      87120        
    498200   498200         3753.3811      301.17714      9314.7599      3010.162       12324.922      58597.802      87120        
    498300   498300         3753.8492      299.99161      9313.1395      2998.313       12311.453      58604.388      87120        
    498400   498400         3754.3209      306.02548      9283.5381      3058.6195      12342.158      58496.717      87120        
    498500   498500         3754.7839      299.78732      9290.3347      2996.2712      12286.606      58417.949      87120        
    498600   498600         3755.2542      296.75765      9270.3818      2965.9906      12236.372      58399.752      87120        
    498700   498700         3755.7197      299.318        9317.3626      2991.5804      12308.943      58577.479      87120        
    498800   498800         3756.1836      306.11388      9335.5082      3059.503       12395.011      58638.045      87120        
    498900   498900         3756.6488      306.1201       9312.6675      3059.5652      12372.233      58614.604      87120        
    499000   499000         3757.1208      297.04956      9339.5547      2968.9082      12308.463      58642.805      87120        
    499100   499100         3757.5828      299.34699      9359.2866      2991.8702      12351.157      58768.364      87120        
    499200   499200         3758.0465      303.61626      9385.4023      3034.5402      12419.942      58917.303      87120        
    499300   499300         3758.5095      306.16414      9336.1023      3060.0053      12396.108      58718.01       87120        
    499400   499400         3758.9759      294.27074      9376.8919      2941.1348      12318.027      58865.272      87120        
    499500   499500         3759.4416      298.33782      9346.6044      2981.7839      12328.388      58747.598      87120        
    499600   499600         3759.906       303.48811      9321.1187      3033.2593      12354.378      58648.667      87120        
    499700   499700         3760.3683      292.81908      9401.0369      2926.626       12327.663      58918.644      87120        
    499800   499800         3760.8318      299.35236      9314.0491      2991.9239      12305.973      58599.567      87120        
    499900   499900         3761.2882      293.36445      9342.9271      2932.0768      12275.004      58662.037      87120        
    500000   500000         3761.7551      299.30417      9374.6089      2991.4422      12366.051      58802.425      87120        
Loop time of 3761.76 on 8 procs for 500000 steps with 4349 atoms

Performance: 11.484 ns/day, 2.090 hours/ns, 132.917 timesteps/s, 578.054 katom-step/s
98.9% CPU use with 8 MPI tasks x no OpenMP threads

MPI task timing breakdown:
Section |  min time  |  avg time  |  max time  |%varavg| %total
---------------------------------------------------------------
Pair    | 49.528     | 1152.2     | 3129.6     |3456.9 | 30.63
Bond    | 5.562      | 17.379     | 24.01      | 169.6 |  0.46
Neigh   | 384.9      | 386.74     | 388.43     |   5.7 | 10.28
Comm    | 107.09     | 2065.1     | 3165.4     |2555.4 | 54.90
Output  | 1.4573     | 1.5577     | 1.7038     |   5.9 |  0.04
Modify  | 104.4      | 122.33     | 161.71     | 158.8 |  3.25
Other   |            | 16.48      |            |       |  0.44

Nlocal:        543.625 ave         856 max           0 min
Histogram: 2 0 0 0 0 0 2 0 0 4
Nghost:           4830 ave        8378 max        2522 min
Histogram: 2 2 0 0 2 0 0 0 0 2
Neighs:         155324 ave      262218 max           0 min
Histogram: 2 0 0 0 2 0 0 0 0 4

Total # of neighbors = 1242589
Ave neighs/atom = 285.71833
Ave special neighs/atom = 6.337089
Neighbor list builds = 35524
Dangerous builds = 0
unfix                  mynvt


write_data             nvt_500ps.data
System init for write_data ...
Generated 21 of 21 mixed pair_coeff terms from arithmetic mixing rule
WARNING: Dihedrals are defined but no dihedral style is set (../force.cpp:207)
WARNING: Likewise 1-4 special neighbor interactions != 1.0 (../force.cpp:209)
WARNING: Impropers are defined but no improper style is set (../force.cpp:212)












Total wall time: 1:02:41
