LAMMPS data file. CGCMM style. atom_style full generated by VMD/TopoTools v1.8 on Tue Sep 03 13:37:03 IST 2024
 4349 atoms
 3917 bonds
 4637 angles
 6951 dihedrals
 1152 impropers
 7 atom types
 5 bond types
 5 angle types
 1 dihedral types
 1 improper types
 -0.149500 32.850500  xlo xhi
 -0.193001 32.806999  ylo yhi
 -38.750000 41.250000  zlo zhi

# Pair Coeffs
#
# 1  CA
# 2  CM
# 3  CP1
# 4  CP2
# 5  HT
# 6  OM
# 7  OT

# Bond Coeffs
#
# 1  CA-CA
# 2  CM-OM
# 3  CP1-CP1
# 4  CP2-CP2
# 5  HT-OT

# Angle Coeffs
#
# 1  CA-CA-CA
# 2  CP1-CP1-CP1
# 3  CP2-CP2-CP2
# 4  HT-OT-HT
# 5  OM-CM-OM

# Dihedral Coeffs
#
# 1  unknown

# Improper Coeffs
#
# 1  unknown

 Masses

 1 12.010700 # CA
 2 12.010700 # CM
 3 12.010700 # CP1
 4 12.010700 # CP2
 5 1.007900 # HT
 6 15.999400 # OM
 7 15.999400 # OT

 Atoms # full

1 5 7 -0.834000 3.668000 10.082000 15.904000 # OT TIP3
2 5 5 0.417000 3.224000 10.451000 15.101000 # HT TIP3
3 5 5 0.417000 3.092000 10.379000 16.627001 # HT TIP3
4 7 7 -0.834000 6.033000 4.876000 20.891001 # OT TIP3
5 7 5 0.417000 6.078000 5.224000 21.798000 # HT TIP3
6 7 5 0.417000 6.592000 4.088000 20.961000 # HT TIP3
7 8 7 -0.834000 4.569000 3.960000 29.886999 # OT TIP3
8 8 5 0.417000 3.959000 3.160000 29.980000 # HT TIP3
9 8 5 0.417000 3.995000 4.655000 29.422001 # HT TIP3
10 21 7 -0.834000 5.186000 16.695999 12.072000 # OT TIP3
11 21 5 0.417000 6.083000 16.979000 11.816000 # HT TIP3
12 21 5 0.417000 5.337000 15.832000 12.490000 # HT TIP3
13 26 7 -0.834000 14.437000 5.794000 30.556000 # OT TIP3
14 26 5 0.417000 13.524000 5.319000 30.532000 # HT TIP3
15 26 5 0.417000 14.984000 5.113000 30.973000 # HT TIP3
16 29 7 -0.834000 8.324000 13.811000 21.332001 # OT TIP3
17 29 5 0.417000 8.633000 13.348000 22.112000 # HT TIP3
18 29 5 0.417000 8.506000 13.116000 20.645000 # HT TIP3
19 44 7 -0.834000 3.786000 16.318001 1.310000 # OT TIP3
20 44 5 0.417000 3.781000 15.388000 1.196000 # HT TIP3
21 44 5 0.417000 4.528000 16.580000 0.781000 # HT TIP3
22 46 7 -0.834000 6.205000 6.991000 18.441999 # OT TIP3
23 46 5 0.417000 6.782000 7.347000 19.152000 # HT TIP3
24 46 5 0.417000 5.309000 7.062000 18.799999 # HT TIP3
25 47 7 -0.834000 16.125999 14.701000 4.577000 # OT TIP3
26 47 5 0.417000 16.070000 14.272000 3.726000 # HT TIP3
27 47 5 0.417000 16.805000 15.454000 4.445000 # HT TIP3
28 48 7 -0.834000 2.750000 8.844000 9.629000 # OT TIP3
29 48 5 0.417000 2.110000 8.290000 9.998000 # HT TIP3
30 48 5 0.417000 2.164000 9.245000 8.962000 # HT TIP3
31 52 7 -0.834000 3.935000 16.195000 22.108999 # OT TIP3
32 52 5 0.417000 4.870000 16.034000 21.985001 # HT TIP3
33 52 5 0.417000 3.655000 15.367000 22.580999 # HT TIP3
34 53 7 -0.834000 2.991000 11.162000 27.860001 # OT TIP3
35 53 5 0.417000 3.594000 10.968000 27.129000 # HT TIP3
36 53 5 0.417000 2.414000 11.775000 27.430000 # HT TIP3
37 55 7 -0.834000 4.240000 7.037000 27.080999 # OT TIP3
38 55 5 0.417000 4.656000 7.831000 26.658001 # HT TIP3
39 55 5 0.417000 3.786000 7.428000 27.812000 # HT TIP3
40 64 7 -0.834000 10.674000 8.909000 4.986000 # OT TIP3
41 64 5 0.417000 10.998000 8.871000 5.932000 # HT TIP3
42 64 5 0.417000 9.748000 9.270000 5.075000 # HT TIP3
43 67 7 -0.834000 0.002000 5.667000 14.591000 # OT TIP3
44 67 5 0.417000 0.483000 5.990000 13.830000 # HT TIP3
45 67 5 0.417000 0.608000 5.781000 15.347000 # HT TIP3
46 68 7 -0.834000 9.882000 9.156000 14.916000 # OT TIP3
47 68 5 0.417000 9.574000 9.753000 15.597000 # HT TIP3
48 68 5 0.417000 10.021000 8.264000 15.289000 # HT TIP3
49 71 7 -0.834000 7.964000 6.107000 29.452999 # OT TIP3
50 71 5 0.417000 8.242000 5.206000 29.599001 # HT TIP3
51 71 5 0.417000 8.422000 6.545000 30.237000 # HT TIP3
52 76 7 -0.834000 6.316000 5.288000 27.495001 # OT TIP3
53 76 5 0.417000 6.640000 5.631000 28.363001 # HT TIP3
54 76 5 0.417000 5.563000 5.852000 27.280001 # HT TIP3
55 86 7 -0.834000 12.889000 29.660000 9.087000 # OT TIP3
56 86 5 0.417000 12.578000 29.796000 9.975000 # HT TIP3
57 86 5 0.417000 13.764000 29.337000 9.212000 # HT TIP3
58 87 7 -0.834000 1.661000 6.681000 1.943000 # OT TIP3
59 87 5 0.417000 1.943000 5.739000 1.981000 # HT TIP3
60 87 5 0.417000 0.778000 6.599000 1.483000 # HT TIP3
61 88 7 -0.834000 4.821000 20.603001 11.239000 # OT TIP3
62 88 5 0.417000 5.466000 20.782000 11.963000 # HT TIP3
63 88 5 0.417000 5.384000 20.914000 10.456000 # HT TIP3
64 90 7 -0.834000 15.022000 20.855000 12.831000 # OT TIP3
65 90 5 0.417000 14.222000 20.809000 13.292000 # HT TIP3
66 90 5 0.417000 14.673000 21.056999 11.918000 # HT TIP3
67 94 7 -0.834000 1.339000 3.782000 22.813999 # OT TIP3
68 94 5 0.417000 0.839000 3.425000 22.087000 # HT TIP3
69 94 5 0.417000 1.775000 3.077000 23.138000 # HT TIP3
70 95 7 -0.834000 0.485000 15.137000 22.476000 # OT TIP3
71 95 5 0.417000 0.644000 15.425000 23.349001 # HT TIP3
72 95 5 0.417000 0.312000 15.961000 21.975000 # HT TIP3
73 108 7 -0.834000 5.608000 23.917999 12.959000 # OT TIP3
74 108 5 0.417000 4.840000 23.622000 12.545000 # HT TIP3
75 108 5 0.417000 6.037000 24.336000 12.208000 # HT TIP3
76 111 7 -0.834000 10.426000 7.604000 2.404000 # OT TIP3
77 111 5 0.417000 10.761000 8.401000 1.994000 # HT TIP3
78 111 5 0.417000 10.248000 7.889000 3.308000 # HT TIP3
79 112 7 -0.834000 8.569000 25.684000 12.211000 # OT TIP3
80 112 5 0.417000 9.123000 25.542000 13.015000 # HT TIP3
81 112 5 0.417000 8.805000 26.594999 11.927000 # HT TIP3
82 113 7 -0.834000 4.269000 22.752001 16.264999 # OT TIP3
83 113 5 0.417000 4.149000 23.680000 15.888000 # HT TIP3
84 113 5 0.417000 5.061000 22.796000 16.775999 # HT TIP3
85 115 7 -0.834000 3.599000 13.689000 23.583000 # OT TIP3
86 115 5 0.417000 3.430000 12.876000 24.062000 # HT TIP3
87 115 5 0.417000 4.561000 13.769000 23.660999 # HT TIP3
88 116 7 -0.834000 19.952000 1.961000 26.164000 # OT TIP3
89 116 5 0.417000 20.414000 1.079000 26.079000 # HT TIP3
90 116 5 0.417000 20.667000 2.653000 26.013000 # HT TIP3
91 125 7 -0.834000 22.572001 6.242000 3.478000 # OT TIP3
92 125 5 0.417000 21.705000 5.845000 3.830000 # HT TIP3
93 125 5 0.417000 22.951000 5.659000 2.858000 # HT TIP3
94 129 7 -0.834000 7.782000 28.346001 20.641001 # OT TIP3
95 129 5 0.417000 8.655000 28.233999 21.114000 # HT TIP3
96 129 5 0.417000 7.669000 29.295000 20.444000 # HT TIP3
97 130 7 -0.834000 10.926000 5.365000 1.018000 # OT TIP3
98 130 5 0.417000 11.138000 4.769000 1.754000 # HT TIP3
99 130 5 0.417000 10.657000 6.212000 1.493000 # HT TIP3
100 133 7 -0.834000 8.647000 4.314000 19.278000 # OT TIP3
101 133 5 0.417000 7.964000 3.611000 19.326000 # HT TIP3
102 133 5 0.417000 8.043000 5.064000 19.153000 # HT TIP3
103 134 7 -0.834000 8.381000 17.319000 23.275000 # OT TIP3
104 134 5 0.417000 7.516000 17.340000 23.695000 # HT TIP3
105 134 5 0.417000 8.431000 18.263000 23.009001 # HT TIP3
106 135 7 -0.834000 4.342000 11.388000 25.271000 # OT TIP3
107 135 5 0.417000 4.842000 10.697000 25.677999 # HT TIP3
108 135 5 0.417000 4.903000 12.148000 25.577999 # HT TIP3
109 137 7 -0.834000 1.670000 15.675000 29.166000 # OT TIP3
110 137 5 0.417000 2.120000 15.950000 29.974001 # HT TIP3
111 137 5 0.417000 0.763000 15.517000 29.468000 # HT TIP3
112 145 7 -0.834000 16.469999 28.089001 2.181000 # OT TIP3
113 145 5 0.417000 16.854000 27.230000 2.499000 # HT TIP3
114 145 5 0.417000 15.533000 27.856001 2.088000 # HT TIP3
115 149 7 -0.834000 0.802000 25.084000 5.523000 # OT TIP3
116 149 5 0.417000 0.579000 26.065001 5.505000 # HT TIP3
117 149 5 0.417000 1.795000 25.163000 5.445000 # HT TIP3
118 150 7 -0.834000 4.299000 17.774000 7.169000 # OT TIP3
119 150 5 0.417000 3.303000 17.802999 7.322000 # HT TIP3
120 150 5 0.417000 4.533000 18.754999 6.924000 # HT TIP3
121 152 7 -0.834000 8.892000 12.977000 5.321000 # OT TIP3
122 152 5 0.417000 8.119000 12.478000 5.443000 # HT TIP3
123 152 5 0.417000 9.342000 12.557000 4.536000 # HT TIP3
124 153 7 -0.834000 2.708000 20.969000 24.504000 # OT TIP3
125 153 5 0.417000 2.589000 20.945000 23.556000 # HT TIP3
126 153 5 0.417000 3.123000 21.834999 24.549000 # HT TIP3
127 155 7 -0.834000 2.428000 12.731000 30.487000 # OT TIP3
128 155 5 0.417000 2.719000 12.073000 29.830000 # HT TIP3
129 155 5 0.417000 2.582000 13.542000 30.007999 # HT TIP3
130 156 7 -0.834000 11.281000 31.586000 24.226000 # OT TIP3
131 156 5 0.417000 11.147000 30.638000 24.048000 # HT TIP3
132 156 5 0.417000 12.131000 31.561001 24.702000 # HT TIP3
133 167 7 -0.834000 2.174000 18.468000 2.212000 # OT TIP3
134 167 5 0.417000 2.632000 17.628000 2.203000 # HT TIP3
135 167 5 0.417000 2.931000 19.120001 2.281000 # HT TIP3
136 197 7 -0.834000 18.870001 21.459999 28.971001 # OT TIP3
137 197 5 0.417000 17.903000 21.288000 28.721001 # HT TIP3
138 197 5 0.417000 19.073999 20.691000 29.591000 # HT TIP3
139 201 7 -0.834000 3.522000 29.694000 27.275000 # OT TIP3
140 201 5 0.417000 2.979000 29.239000 28.035000 # HT TIP3
141 201 5 0.417000 2.890000 30.250000 26.886999 # HT TIP3
142 212 7 -0.834000 9.064000 30.445999 17.695999 # OT TIP3
143 212 5 0.417000 9.896000 30.191999 18.080999 # HT TIP3
144 212 5 0.417000 8.498000 30.631001 18.490999 # HT TIP3
145 237 7 -0.834000 0.565000 29.252001 1.583000 # OT TIP3
146 237 5 0.417000 1.463000 29.562000 1.736000 # HT TIP3
147 237 5 0.417000 0.586000 28.334999 1.788000 # HT TIP3
148 239 7 -0.834000 13.612000 17.680000 18.622000 # OT TIP3
149 239 5 0.417000 13.744000 17.414000 19.507999 # HT TIP3
150 239 5 0.417000 14.526000 17.830999 18.347000 # HT TIP3
151 261 7 -0.834000 1.287000 24.132000 23.737000 # OT TIP3
152 261 5 0.417000 1.235000 23.924000 24.731001 # HT TIP3
153 261 5 0.417000 2.088000 24.709000 23.639000 # HT TIP3
154 365 7 -0.834000 6.365000 2.674000 28.059000 # OT TIP3
155 365 5 0.417000 5.799000 3.437000 27.849001 # HT TIP3
156 365 5 0.417000 7.175000 3.055000 28.403000 # HT TIP3
157 424 7 -0.834000 15.414000 6.569000 2.501000 # OT TIP3
158 424 5 0.417000 16.224001 6.858000 2.128000 # HT TIP3
159 424 5 0.417000 14.808000 6.700000 1.671000 # HT TIP3
160 443 7 -0.834000 9.935000 12.876000 10.191000 # OT TIP3
161 443 5 0.417000 9.709000 12.098000 9.634000 # HT TIP3
162 443 5 0.417000 9.472000 12.766000 11.018000 # HT TIP3
163 449 7 -0.834000 7.060000 2.074000 19.830000 # OT TIP3
164 449 5 0.417000 7.650000 1.619000 20.528000 # HT TIP3
165 449 5 0.417000 6.148000 1.796000 20.035000 # HT TIP3
166 450 7 -0.834000 13.891000 1.919000 2.992000 # OT TIP3
167 450 5 0.417000 14.198000 2.681000 3.422000 # HT TIP3
168 450 5 0.417000 13.212000 1.577000 3.578000 # HT TIP3
169 451 7 -0.834000 8.823000 10.581000 8.827000 # OT TIP3
170 451 5 0.417000 8.183000 10.753000 8.148000 # HT TIP3
171 451 5 0.417000 8.389000 10.061000 9.534000 # HT TIP3
172 452 7 -0.834000 9.078000 11.967000 12.734000 # OT TIP3
173 452 5 0.417000 8.228000 11.561000 12.993000 # HT TIP3
174 452 5 0.417000 9.512000 12.194000 13.560000 # HT TIP3
175 453 7 -0.834000 10.282000 0.640000 2.053000 # OT TIP3
176 453 5 0.417000 10.367000 0.959000 3.016000 # HT TIP3
177 453 5 0.417000 9.743000 1.323000 1.667000 # HT TIP3
178 454 7 -0.834000 4.618000 8.125000 7.777000 # OT TIP3
179 454 5 0.417000 5.405000 7.919000 8.314000 # HT TIP3
180 454 5 0.417000 4.002000 8.458000 8.422000 # HT TIP3
181 455 7 -0.834000 3.403000 4.687000 9.815000 # OT TIP3
182 455 5 0.417000 3.109000 5.272000 9.097000 # HT TIP3
183 455 5 0.417000 3.817000 3.973000 9.327000 # HT TIP3
184 456 7 -0.834000 3.276000 7.465000 19.325001 # OT TIP3
185 456 5 0.417000 2.772000 6.991000 19.964001 # HT TIP3
186 456 5 0.417000 3.604000 8.288000 19.753000 # HT TIP3
187 457 7 -0.834000 1.840000 8.265000 28.662001 # OT TIP3
188 457 5 0.417000 1.680000 8.044000 27.747000 # HT TIP3
189 457 5 0.417000 1.834000 9.211000 28.733000 # HT TIP3
190 458 7 -0.834000 9.978000 7.875000 24.948000 # OT TIP3
191 458 5 0.417000 9.589000 7.626000 25.844999 # HT TIP3
192 458 5 0.417000 10.436000 8.656000 25.187000 # HT TIP3
193 459 7 -0.834000 3.119000 10.325000 13.158000 # OT TIP3
194 459 5 0.417000 3.598000 10.900000 12.512000 # HT TIP3
195 459 5 0.417000 3.440000 9.430000 12.962000 # HT TIP3
196 460 7 -0.834000 2.378000 5.806000 16.253000 # OT TIP3
197 460 5 0.417000 2.157000 6.161000 17.099001 # HT TIP3
198 460 5 0.417000 3.301000 6.032000 16.125999 # HT TIP3
199 461 7 -0.834000 6.382000 22.271000 2.319000 # OT TIP3
200 461 5 0.417000 5.550000 22.035000 1.847000 # HT TIP3
201 461 5 0.417000 6.859000 21.472000 2.192000 # HT TIP3
202 462 7 -0.834000 4.017000 3.905000 19.417999 # OT TIP3
203 462 5 0.417000 3.142000 4.042000 19.132000 # HT TIP3
204 462 5 0.417000 4.582000 4.727000 19.295000 # HT TIP3
205 463 7 -0.834000 2.344000 20.472000 21.631001 # OT TIP3
206 463 5 0.417000 2.932000 20.820999 20.945000 # HT TIP3
207 463 5 0.417000 1.467000 20.548000 21.138000 # HT TIP3
208 464 7 -0.834000 20.613001 13.616000 11.066000 # OT TIP3
209 464 5 0.417000 20.739000 13.959000 10.218000 # HT TIP3
210 464 5 0.417000 19.618999 13.816000 11.250000 # HT TIP3
211 465 7 -0.834000 1.787000 9.518000 24.514999 # OT TIP3
212 465 5 0.417000 2.132000 9.575000 23.646000 # HT TIP3
213 465 5 0.417000 1.860000 10.406000 24.787001 # HT TIP3
214 466 7 -0.834000 14.526000 10.532000 20.136999 # OT TIP3
215 466 5 0.417000 14.162000 9.733000 20.503000 # HT TIP3
216 466 5 0.417000 14.466000 10.420000 19.194000 # HT TIP3
217 467 7 -0.834000 26.124001 16.594000 16.806999 # OT TIP3
218 467 5 0.417000 26.948000 16.864000 17.243999 # HT TIP3
219 467 5 0.417000 26.136999 17.048000 15.900000 # HT TIP3
220 468 7 -0.834000 8.876000 28.437000 5.579000 # OT TIP3
221 468 5 0.417000 9.227000 27.577000 5.358000 # HT TIP3
222 468 5 0.417000 8.790000 28.398001 6.533000 # HT TIP3
223 469 7 -0.834000 5.573000 14.804000 19.090000 # OT TIP3
224 469 5 0.417000 5.959000 15.339000 19.808001 # HT TIP3
225 469 5 0.417000 5.869000 15.413000 18.330999 # HT TIP3
226 470 7 -0.834000 16.283001 7.354000 22.781000 # OT TIP3
227 470 5 0.417000 15.640000 8.058000 22.448999 # HT TIP3
228 470 5 0.417000 15.973000 6.560000 22.379000 # HT TIP3
229 471 7 -0.834000 22.872000 18.441000 16.788000 # OT TIP3
230 471 5 0.417000 22.201000 17.864000 16.379000 # HT TIP3
231 471 5 0.417000 22.334999 18.981001 17.424999 # HT TIP3
232 472 7 -0.834000 5.458000 13.097000 4.589000 # OT TIP3
233 472 5 0.417000 5.673000 13.019000 3.612000 # HT TIP3
234 472 5 0.417000 4.899000 13.894000 4.657000 # HT TIP3
235 473 7 -0.834000 27.849001 9.868000 19.173000 # OT TIP3
236 473 5 0.417000 27.170000 9.720000 19.863001 # HT TIP3
237 473 5 0.417000 27.403000 10.419000 18.489000 # HT TIP3
238 474 7 -0.834000 4.552000 1.370000 20.330000 # OT TIP3
239 474 5 0.417000 4.274000 2.194000 19.952999 # HT TIP3
240 474 5 0.417000 4.235000 0.801000 19.570999 # HT TIP3
241 475 7 -0.834000 4.594000 25.266001 15.200000 # OT TIP3
242 475 5 0.417000 3.638000 25.500000 15.196000 # HT TIP3
243 475 5 0.417000 4.758000 24.896999 14.312000 # HT TIP3
244 476 7 -0.834000 10.966000 0.487000 27.664000 # OT TIP3
245 476 5 0.417000 10.835000 1.423000 27.475000 # HT TIP3
246 476 5 0.417000 10.558000 0.092000 26.882999 # HT TIP3
247 477 7 -0.834000 6.580000 12.992000 29.691000 # OT TIP3
248 477 5 0.417000 6.430000 13.886000 29.972000 # HT TIP3
249 477 5 0.417000 6.429000 12.499000 30.481001 # HT TIP3
250 478 7 -0.834000 5.160000 13.744000 7.954000 # OT TIP3
251 478 5 0.417000 6.048000 13.422000 8.207000 # HT TIP3
252 478 5 0.417000 5.008000 14.493000 8.528000 # HT TIP3
253 479 7 -0.834000 10.390000 6.386000 18.827999 # OT TIP3
254 479 5 0.417000 10.688000 6.484000 19.731001 # HT TIP3
255 479 5 0.417000 9.844000 5.589000 18.921000 # HT TIP3
256 480 7 -0.834000 1.678000 21.941999 1.035000 # OT TIP3
257 480 5 0.417000 1.272000 21.280001 1.592000 # HT TIP3
258 480 5 0.417000 1.498000 22.809000 1.493000 # HT TIP3
259 481 7 -0.834000 9.630000 21.547001 3.000000 # OT TIP3
260 481 5 0.417000 9.601000 22.471001 2.643000 # HT TIP3
261 481 5 0.417000 9.287000 20.954000 2.312000 # HT TIP3
262 482 7 -0.834000 4.391000 29.423000 21.120001 # OT TIP3
263 482 5 0.417000 3.763000 28.799000 21.511000 # HT TIP3
264 482 5 0.417000 4.594000 29.044001 20.208000 # HT TIP3
265 483 7 -0.834000 2.344000 10.571000 2.624000 # OT TIP3
266 483 5 0.417000 2.122000 10.753000 3.553000 # HT TIP3
267 483 5 0.417000 2.947000 9.791000 2.617000 # HT TIP3
268 484 7 -0.834000 2.582000 27.635000 22.063000 # OT TIP3
269 484 5 0.417000 1.826000 27.334000 22.610001 # HT TIP3
270 484 5 0.417000 2.141000 27.872999 21.226999 # HT TIP3
271 485 7 -0.834000 13.385000 9.769000 29.452999 # OT TIP3
272 485 5 0.417000 13.856000 10.391000 30.062000 # HT TIP3
273 485 5 0.417000 12.599000 9.513000 29.965000 # HT TIP3
274 486 7 -0.834000 0.823000 23.667999 2.888000 # OT TIP3
275 486 5 0.417000 1.636000 23.316000 3.340000 # HT TIP3
276 486 5 0.417000 0.253000 23.978001 3.640000 # HT TIP3
277 487 7 -0.834000 2.083000 28.332001 7.326000 # OT TIP3
278 487 5 0.417000 1.558000 28.514000 8.115000 # HT TIP3
279 487 5 0.417000 1.496000 27.737000 6.811000 # HT TIP3
280 488 7 -0.834000 13.220000 24.493999 13.092000 # OT TIP3
281 488 5 0.417000 12.891000 25.382999 13.287000 # HT TIP3
282 488 5 0.417000 13.056000 23.917999 13.853000 # HT TIP3
283 489 7 -0.834000 0.995000 28.021000 10.015000 # OT TIP3
284 489 5 0.417000 0.013000 27.981001 10.043000 # HT TIP3
285 489 5 0.417000 1.298000 27.118999 10.263000 # HT TIP3
286 490 7 -0.834000 2.710000 6.185000 7.540000 # OT TIP3
287 490 5 0.417000 2.467000 6.236000 6.561000 # HT TIP3
288 490 5 0.417000 3.410000 6.855000 7.580000 # HT TIP3
289 491 7 -0.834000 6.911000 19.458000 17.334999 # OT TIP3
290 491 5 0.417000 7.517000 20.118000 16.957001 # HT TIP3
291 491 5 0.417000 6.315000 19.136000 16.587999 # HT TIP3
292 492 7 -0.834000 5.179000 20.889999 27.386999 # OT TIP3
293 492 5 0.417000 4.618000 21.606001 27.646000 # HT TIP3
294 492 5 0.417000 5.196000 20.211000 28.107000 # HT TIP3
295 493 7 -0.834000 16.191999 22.403000 3.782000 # OT TIP3
296 493 5 0.417000 16.363001 22.881001 4.622000 # HT TIP3
297 493 5 0.417000 16.427000 23.065001 3.086000 # HT TIP3
298 494 7 -0.834000 13.540000 22.219999 2.748000 # OT TIP3
299 494 5 0.417000 12.965000 22.475000 3.462000 # HT TIP3
300 494 5 0.417000 14.428000 22.403999 3.074000 # HT TIP3
301 495 7 -0.834000 9.525000 28.541000 30.150999 # OT TIP3
302 495 5 0.417000 10.415000 28.417999 29.686001 # HT TIP3
303 495 5 0.417000 9.197000 27.671000 30.239000 # HT TIP3
304 496 7 -0.834000 8.389000 18.165001 30.992001 # OT TIP3
305 496 5 0.417000 7.968000 17.770000 30.209999 # HT TIP3
306 496 5 0.417000 8.417000 17.451000 31.641001 # HT TIP3
307 497 7 -0.834000 8.181000 23.465000 7.637000 # OT TIP3
308 497 5 0.417000 9.007000 23.937000 7.703000 # HT TIP3
309 497 5 0.417000 7.517000 24.117001 7.312000 # HT TIP3
310 498 7 -0.834000 10.929000 14.750000 5.718000 # OT TIP3
311 498 5 0.417000 10.050000 14.541000 5.408000 # HT TIP3
312 498 5 0.417000 11.401000 13.879000 5.717000 # HT TIP3
313 499 7 -0.834000 19.659000 25.552000 17.448999 # OT TIP3
314 499 5 0.417000 20.181999 26.346001 17.499001 # HT TIP3
315 499 5 0.417000 18.733999 25.858000 17.381001 # HT TIP3
316 500 7 -0.834000 2.086000 25.452000 18.194000 # OT TIP3
317 500 5 0.417000 2.174000 25.923000 17.393999 # HT TIP3
318 500 5 0.417000 1.272000 25.868999 18.604000 # HT TIP3
319 501 7 -0.834000 1.683000 25.667000 26.332001 # OT TIP3
320 501 5 0.417000 2.580000 25.907000 26.426001 # HT TIP3
321 501 5 0.417000 1.485000 25.226999 27.125999 # HT TIP3
322 502 7 -0.834000 23.330999 21.618999 18.069000 # OT TIP3
323 502 5 0.417000 23.136999 22.516001 18.455999 # HT TIP3
324 502 5 0.417000 22.663000 20.985001 18.450001 # HT TIP3
325 503 7 -0.834000 16.507000 17.170000 21.006001 # OT TIP3
326 503 5 0.417000 17.226000 17.006001 20.295000 # HT TIP3
327 503 5 0.417000 16.030001 16.297001 21.082001 # HT TIP3
328 504 7 -0.834000 3.790000 23.318001 26.066999 # OT TIP3
329 504 5 0.417000 4.111000 23.684000 26.900999 # HT TIP3
330 504 5 0.417000 2.835000 23.195999 26.247999 # HT TIP3
331 505 7 -0.834000 7.435000 31.115999 20.100000 # OT TIP3
332 505 5 0.417000 6.578000 31.264000 19.666000 # HT TIP3
333 505 5 0.417000 7.314000 31.542000 21.014000 # HT TIP3
334 506 7 -0.834000 0.747000 4.469000 10.579000 # OT TIP3
335 506 5 0.417000 0.426000 3.568000 10.339000 # HT TIP3
336 506 5 0.417000 1.505000 4.585000 9.990000 # HT TIP3
337 507 7 -0.834000 5.356000 5.388000 16.046000 # OT TIP3
338 507 5 0.417000 5.884000 6.064000 16.461000 # HT TIP3
339 507 5 0.417000 5.592000 4.622000 16.537001 # HT TIP3
340 508 7 -0.834000 1.889000 5.585000 29.541000 # OT TIP3
341 508 5 0.417000 1.938000 6.502000 29.263000 # HT TIP3
342 508 5 0.417000 1.015000 5.312000 29.145000 # HT TIP3
343 509 7 -0.834000 10.704000 6.721000 15.883000 # OT TIP3
344 509 5 0.417000 10.901000 6.912000 16.836000 # HT TIP3
345 509 5 0.417000 10.127000 5.972000 15.998000 # HT TIP3
346 510 7 -0.834000 26.896999 12.094000 0.679000 # OT TIP3
347 510 5 0.417000 26.514000 11.280000 0.304000 # HT TIP3
348 510 5 0.417000 27.875000 11.927000 0.553000 # HT TIP3
349 511 7 -0.834000 2.189000 1.706000 24.878000 # OT TIP3
350 511 5 0.417000 1.464000 1.091000 24.709999 # HT TIP3
351 511 5 0.417000 2.125000 1.805000 25.900000 # HT TIP3
352 512 7 -0.834000 11.763000 19.614000 9.958000 # OT TIP3
353 512 5 0.417000 12.279000 20.405001 9.866000 # HT TIP3
354 512 5 0.417000 12.435000 18.905001 9.901000 # HT TIP3
355 513 7 -0.834000 7.864000 10.603000 28.950001 # OT TIP3
356 513 5 0.417000 7.469000 11.275000 29.507000 # HT TIP3
357 513 5 0.417000 7.154000 9.992000 28.783001 # HT TIP3
358 514 7 -0.834000 10.893000 8.416000 30.315001 # OT TIP3
359 514 5 0.417000 10.739000 7.787000 29.538000 # HT TIP3
360 514 5 0.417000 10.361000 7.971000 30.974001 # HT TIP3
361 515 7 -0.834000 7.027000 2.224000 13.411000 # OT TIP3
362 515 5 0.417000 6.185000 2.801000 13.535000 # HT TIP3
363 515 5 0.417000 6.692000 1.403000 13.742000 # HT TIP3
364 516 7 -0.834000 17.812000 5.771000 5.876000 # OT TIP3
365 516 5 0.417000 17.219999 6.316000 5.380000 # HT TIP3
366 516 5 0.417000 17.551001 4.869000 5.669000 # HT TIP3
367 517 7 -0.834000 4.028000 7.699000 12.776000 # OT TIP3
368 517 5 0.417000 4.577000 7.193000 12.138000 # HT TIP3
369 517 5 0.417000 3.171000 7.320000 12.544000 # HT TIP3
370 518 7 -0.834000 11.049000 9.880000 26.882000 # OT TIP3
371 518 5 0.417000 11.395000 9.481000 27.655001 # HT TIP3
372 518 5 0.417000 11.905000 10.095000 26.382999 # HT TIP3
373 519 7 -0.834000 22.132999 2.886000 19.843000 # OT TIP3
374 519 5 0.417000 22.929001 2.596000 20.261999 # HT TIP3
375 519 5 0.417000 21.486000 2.828000 20.561001 # HT TIP3
376 520 7 -0.834000 20.975000 7.300000 30.576000 # OT TIP3
377 520 5 0.417000 21.781000 6.730000 30.419001 # HT TIP3
378 520 5 0.417000 21.289000 7.819000 31.305000 # HT TIP3
379 521 7 -0.834000 12.493000 9.451000 2.215000 # OT TIP3
380 521 5 0.417000 12.908000 9.840000 2.987000 # HT TIP3
381 521 5 0.417000 12.982000 8.641000 2.039000 # HT TIP3
382 522 7 -0.834000 11.177000 9.610000 7.928000 # OT TIP3
383 522 5 0.417000 10.443000 10.172000 8.053000 # HT TIP3
384 522 5 0.417000 10.866000 8.788000 8.298000 # HT TIP3
385 523 7 -0.834000 1.838000 3.206000 15.398000 # OT TIP3
386 523 5 0.417000 2.201000 4.081000 15.545000 # HT TIP3
387 523 5 0.417000 2.117000 2.999000 14.422000 # HT TIP3
388 524 7 -0.834000 16.132999 12.593000 16.908001 # OT TIP3
389 524 5 0.417000 15.352000 12.769000 16.391001 # HT TIP3
390 524 5 0.417000 15.887000 11.876000 17.511000 # HT TIP3
391 525 7 -0.834000 1.899000 11.624000 17.893000 # OT TIP3
392 525 5 0.417000 1.139000 11.678000 17.305000 # HT TIP3
393 525 5 0.417000 2.258000 12.535000 17.855000 # HT TIP3
394 526 7 -0.834000 9.220000 13.904000 17.340000 # OT TIP3
395 526 5 0.417000 10.062000 14.198000 17.738001 # HT TIP3
396 526 5 0.417000 9.394000 12.999000 17.101999 # HT TIP3
397 527 7 -0.834000 3.458000 9.868000 22.419001 # OT TIP3
398 527 5 0.417000 4.398000 10.016000 22.653999 # HT TIP3
399 527 5 0.417000 3.448000 10.189000 21.495001 # HT TIP3
400 528 7 -0.834000 2.924000 4.143000 26.959000 # OT TIP3
401 528 5 0.417000 3.558000 4.546000 26.375999 # HT TIP3
402 528 5 0.417000 2.665000 4.830000 27.591999 # HT TIP3
403 529 7 -0.834000 18.441000 16.134001 3.840000 # OT TIP3
404 529 5 0.417000 18.610001 16.488001 2.968000 # HT TIP3
405 529 5 0.417000 19.113001 15.407000 3.961000 # HT TIP3
406 530 7 -0.834000 15.430000 3.274000 7.407000 # OT TIP3
407 530 5 0.417000 15.458000 2.741000 8.157000 # HT TIP3
408 530 5 0.417000 15.933000 2.740000 6.770000 # HT TIP3
409 531 7 -0.834000 13.134000 4.535000 6.559000 # OT TIP3
410 531 5 0.417000 12.434000 3.932000 6.938000 # HT TIP3
411 531 5 0.417000 13.959000 4.162000 6.965000 # HT TIP3
412 532 7 -0.834000 5.708000 4.426000 24.417999 # OT TIP3
413 532 5 0.417000 6.002000 4.703000 25.299999 # HT TIP3
414 532 5 0.417000 5.157000 5.168000 24.143999 # HT TIP3
415 533 7 -0.834000 16.320999 19.495001 15.870000 # OT TIP3
416 533 5 0.417000 16.959999 19.159000 15.192000 # HT TIP3
417 533 5 0.417000 16.854000 20.132000 16.388000 # HT TIP3
418 534 7 -0.834000 10.295000 14.066000 14.320000 # OT TIP3
419 534 5 0.417000 10.592000 14.067000 15.226000 # HT TIP3
420 534 5 0.417000 9.322000 14.226000 14.350000 # HT TIP3
421 535 7 -0.834000 16.007999 17.797001 11.410000 # OT TIP3
422 535 5 0.417000 16.695000 17.702000 10.684000 # HT TIP3
423 535 5 0.417000 15.186000 17.521000 10.942000 # HT TIP3
424 536 7 -0.834000 15.398000 1.552000 18.246000 # OT TIP3
425 536 5 0.417000 16.016001 1.951000 17.566000 # HT TIP3
426 536 5 0.417000 14.574000 2.011000 18.108999 # HT TIP3
427 537 7 -0.834000 7.830000 19.750999 1.995000 # OT TIP3
428 537 5 0.417000 7.257000 19.870001 1.247000 # HT TIP3
429 537 5 0.417000 8.329000 18.923000 1.885000 # HT TIP3
430 538 7 -0.834000 13.663000 26.431999 6.529000 # OT TIP3
431 538 5 0.417000 13.851000 26.261000 7.482000 # HT TIP3
432 538 5 0.417000 13.355000 27.375000 6.532000 # HT TIP3
433 539 7 -0.834000 15.027000 11.249000 9.806000 # OT TIP3
434 539 5 0.417000 15.636000 10.953000 9.104000 # HT TIP3
435 539 5 0.417000 14.929000 12.194000 9.545000 # HT TIP3
436 540 7 -0.834000 19.530001 19.813000 24.413000 # OT TIP3
437 540 5 0.417000 20.399000 20.250999 24.330999 # HT TIP3
438 540 5 0.417000 19.754999 18.875999 24.417999 # HT TIP3
439 541 7 -0.834000 10.274000 11.448000 20.959000 # OT TIP3
440 541 5 0.417000 10.893000 11.073000 21.653999 # HT TIP3
441 541 5 0.417000 10.344000 10.891000 20.238001 # HT TIP3
442 542 7 -0.834000 11.473000 6.075000 21.702000 # OT TIP3
443 542 5 0.417000 12.046000 5.667000 22.431000 # HT TIP3
444 542 5 0.417000 10.554000 5.939000 22.100000 # HT TIP3
445 543 7 -0.834000 8.318000 15.284000 25.150000 # OT TIP3
446 543 5 0.417000 8.990000 15.079000 25.736000 # HT TIP3
447 543 5 0.417000 8.736000 15.953000 24.563999 # HT TIP3
448 544 7 -0.834000 30.868000 28.733999 2.731000 # OT TIP3
449 544 5 0.417000 30.990999 29.422001 2.019000 # HT TIP3
450 544 5 0.417000 31.514999 28.042999 2.484000 # HT TIP3
451 545 7 -0.834000 13.912000 26.462000 2.286000 # OT TIP3
452 545 5 0.417000 13.667000 27.388000 2.539000 # HT TIP3
453 545 5 0.417000 13.488000 25.916000 3.000000 # HT TIP3
454 546 7 -0.834000 21.007999 3.270000 15.173000 # OT TIP3
455 546 5 0.417000 20.389999 4.036000 15.084000 # HT TIP3
456 546 5 0.417000 21.768000 3.592000 14.749000 # HT TIP3
457 547 7 -0.834000 17.309999 12.725000 30.316999 # OT TIP3
458 547 5 0.417000 16.481001 13.161000 30.591000 # HT TIP3
459 547 5 0.417000 17.056999 11.856000 29.938999 # HT TIP3
460 548 7 -0.834000 6.800000 16.659000 17.184000 # OT TIP3
461 548 5 0.417000 7.143000 16.649000 16.327000 # HT TIP3
462 548 5 0.417000 7.109000 17.502001 17.568001 # HT TIP3
463 549 7 -0.834000 5.780000 17.516001 24.024000 # OT TIP3
464 549 5 0.417000 5.106000 17.326000 23.341000 # HT TIP3
465 549 5 0.417000 5.750000 18.485001 24.094000 # HT TIP3
466 550 7 -0.834000 24.714001 21.299999 28.954000 # OT TIP3
467 550 5 0.417000 24.445999 21.591000 28.048000 # HT TIP3
468 550 5 0.417000 25.209000 22.035000 29.316999 # HT TIP3
469 551 7 -0.834000 14.603000 18.110001 3.213000 # OT TIP3
470 551 5 0.417000 14.275000 17.655001 3.963000 # HT TIP3
471 551 5 0.417000 13.842000 18.606001 2.878000 # HT TIP3
472 552 7 -0.834000 4.753000 20.139000 5.475000 # OT TIP3
473 552 5 0.417000 4.769000 21.052999 5.846000 # HT TIP3
474 552 5 0.417000 5.663000 20.031000 5.201000 # HT TIP3
475 553 7 -0.834000 9.250000 22.403000 28.403999 # OT TIP3
476 553 5 0.417000 8.424000 22.851999 28.305000 # HT TIP3
477 553 5 0.417000 9.143000 21.926001 29.253000 # HT TIP3
478 554 7 -0.834000 1.615000 17.355000 14.355000 # OT TIP3
479 554 5 0.417000 1.225000 16.480000 14.420000 # HT TIP3
480 554 5 0.417000 0.859000 17.983999 14.051000 # HT TIP3
481 555 7 -0.834000 11.087000 15.787000 20.150000 # OT TIP3
482 555 5 0.417000 11.221000 14.877000 19.698000 # HT TIP3
483 555 5 0.417000 11.936000 15.940000 20.591000 # HT TIP3
484 556 7 -0.834000 22.577999 23.665001 23.229000 # OT TIP3
485 556 5 0.417000 23.396000 23.499001 22.733999 # HT TIP3
486 556 5 0.417000 21.920000 23.775000 22.561001 # HT TIP3
487 557 7 -0.834000 9.784000 18.059999 16.438999 # OT TIP3
488 557 5 0.417000 10.576000 18.166000 15.922000 # HT TIP3
489 557 5 0.417000 9.941000 18.584000 17.233999 # HT TIP3
490 558 7 -0.834000 2.369000 19.620001 10.838000 # OT TIP3
491 558 5 0.417000 2.051000 19.424999 11.701000 # HT TIP3
492 558 5 0.417000 3.347000 19.716999 10.923000 # HT TIP3
493 559 7 -0.834000 15.158000 15.218000 1.453000 # OT TIP3
494 559 5 0.417000 15.286000 16.122999 1.160000 # HT TIP3
495 559 5 0.417000 14.175000 15.219000 1.587000 # HT TIP3
496 560 7 -0.834000 7.929000 9.601000 4.322000 # OT TIP3
497 560 5 0.417000 7.364000 10.340000 3.912000 # HT TIP3
498 560 5 0.417000 7.318000 9.011000 4.820000 # HT TIP3
499 561 7 -0.834000 10.209000 26.934999 1.973000 # OT TIP3
500 561 5 0.417000 9.397000 27.288000 1.520000 # HT TIP3
501 561 5 0.417000 10.523000 27.672001 2.624000 # HT TIP3
502 562 7 -0.834000 7.125000 26.007999 16.205000 # OT TIP3
503 562 5 0.417000 7.305000 26.912001 15.994000 # HT TIP3
504 562 5 0.417000 6.285000 25.889000 15.734000 # HT TIP3
505 563 7 -0.834000 11.585000 23.121000 19.455000 # OT TIP3
506 563 5 0.417000 12.413000 23.205000 19.982000 # HT TIP3