LAMMPS data file via write_data, version 29 Aug 2024, timestep = 500000, units = real

4349 atoms
7 atom types
3917 bonds
5 bond types
4637 angles
5 angle types
6951 dihedrals
1 dihedral types
1152 impropers
1 improper types

-0.1495 32.8505 xlo xhi
-0.193001 32.806999 ylo yhi
-38.75 41.25 zlo zhi

Masses

1 12.0107
2 12.0107
3 12.0107
4 12.0107
5 1.0079
6 15.9994
7 15.9994

Pair Coeffs # lj/cut

1 0.0859 3.3997
2 0.0559 2.757
3 0.0859 3.3997
4 0.0859 3.3997
5 0 1
6 0.1598 3.033
7 0.1521 3.1507

Bond Coeffs # harmonic

1 938 1.42
2 190.96 1.149
3 938 1.42
4 938 1.42
5 450 0.9572

Angle Coeffs # harmonic

1 126 120
2 126 120
3 126 120
4 55 104.52
5 295.4 180

Atoms # full

3434 1 4 0 1.7702260065035957 0.9831452127974294 -30 0 0 0
3437 4 4 0 2.0848494049807873 3.7919971789925646 -30 0 0 0
3438 5 4 0 4.167493799552706 0.9858086724608133 -30 0 0 0
3439 6 4 0 3.0030944154107306 1.6831425837968739 -30 0 0 0
3440 7 4 0 3.1777636942436076 3.0611135526585818 -30 0 0 0
3441 8 4 0 4.318066028341222 3.695561722836919 -30 0 0 0
3443 10 4 0 5.355456112935788 1.641997043479465 -30 0 0 0
3444 11 4 0 5.428252237059834 2.9822407047978614 -30 0 0 0
3490 57 4 0 1.9383153402684015 5.0927024076278995 -30 0 0 0
3494 61 4 0 4.296285845790543 5.025699251063854 -30 0 0 0
3495 62 4 0 3.1375145305801757 5.716097741314571 -30 0 0 0
3499 66 4 0 5.4619355849618305 5.674032940278165 -30 0 0 0
3435 2 4 0 0.6695838610551923 1.771648841790485 -30 0 0 0
3436 3 4 0 1.5755705414150212 2.6349915496371072 -30 0 0 0
3491 58 4 0 0.7621714549580231 5.7268214230735035 -30 0 0 0
3496 63 4 0 3.21165274116702 7.03527331276963 -30 0 0 0
3500 67 4 0 5.495351632334912 6.998387620945961 -30 0 0 0
3492 59 4 0 0.9604967299958717 7.077648213532874 -30 0 0 0
3493 60 4 0 2.0956445540507236 7.7304796853538695 -30 0 0 0
3497 64 4 0 4.366018367726473 7.687043751968609 -30 0 0 0
1443 875 5 0.417 8.107854744054107 8.677191643309149 -26.26251653409611 2 3 0
1442 875 5 0.417 8.286895813984703 7.623540384506914 -27.334738131888432 2 3 0
1441 875 7 -0.834 7.630832093768761 8.198055552656013 -26.94009313187054 2 3 0
720 634 5 0.417 6.804163054716046 0.5055677320648931 -19.555862685412922 -4 2 0
1553 912 5 0.417 5.137624632347985 3.78272364606876 -26.018446326075544 1 1 0
621 601 5 0.417 3.5678218870484986 7.209593510845458 -26.486891807247225 -1 1 0
619 601 7 -0.834 2.9034365984914805 7.773497071042491 -26.88291833573071 -1 1 0
620 601 5 0.417 2.173864322337619 7.756293186930401 -26.263515251255512 -1 1 0
532 572 7 -0.834 31.73507923527617 3.268035743581701 -18.810122528372325 -2 3 0
897 693 5 0.417 11.36520353219703 1.0636241190850155 -26.55165998108495 -3 3 0
2856 1346 5 0.417 32.153209236496835 3.7311452587392964 -24.70794771885747 -2 2 0
1886 1023 5 0.417 17.778874270789107 0.3961182107582766 -26.48336149882225 2 0 0
1065 749 5 0.417 13.512459814144936 10.567604303348867 -20.568243219686043 -2 -2 0
343 509 7 -0.834 5.80410113250502 6.084957868436111 -26.145418288067322 0 -1 0
344 509 5 0.417 5.78572775419292 6.853521391087813 -26.715685281926362 0 -1 0
3442 9 4 0 6.51884819968102 0.9738195088870989 -30 0 0 0
3445 12 4 0 6.58742518389075 3.646110186731923 -30 0 0 0
3498 65 4 0 6.598310021425918 4.981981029615656 -30 0 0 0
3446 13 4 0 8.850338786530976 0.9700125243131797 -30 0 0 0
3447 14 4 0 7.692626807724364 1.6345668124380217 -30 0 0 0
3448 15 4 0 7.726083608618547 2.966191440807898 -30 0 0 0
3449 16 4 0 8.878286203219519 3.635339961421358 -30 0 0 0
3450 17 4 0 11.159255807586455 0.9693412214703419 -30 0 0 0
3451 18 4 0 10.007576551638552 1.6376158747493514 -30 0 0 0
3452 19 4 0 10.025431760407507 2.9664572833631113 -30 0 0 0
3453 20 4 0 11.173346393306687 3.637517179384228 -30 0 0 0
3455 22 4 0 12.310093963471488 1.6387881428179023 -30 0 0 0
3456 23 4 0 12.316244295191352 2.9698322618374133 -30 0 0 0
3502 69 4 0 8.898940294438486 4.9656705147682025 -30 0 0 0
3503 70 4 0 7.753665116394329 5.644167679648862 -30 0 0 0
3506 73 4 0 11.188552735142459 4.966854571485907 -30 0 0 0
3507 74 4 0 10.04813721669398 5.639213132802408 -30 0 0 0
3511 78 4 0 12.33654757670993 5.6373096078766896 -30 0 0 0
3504 71 4 0 7.783129870326532 6.974050118481352 -30 0 0 0
3508 75 4 0 10.064748553887583 6.966957245382712 -30 0 0 0
3512 79 4 0 12.35033277167071 6.969023331647031 -30 0 0 0
3501 68 4 0 6.644478406321002 7.659555358324634 -30 0 0 0
3505 72 4 0 8.93085277589056 7.642729354544836 -30 0 0 0
3509 76 4 0 11.209871875448892 7.639418200462017 -30 0 0 0
2560 1248 7 -0.834 9.016188702709549 3.6662052983048756 -27.011610747888586 -1 2 0
2562 1248 5 0.417 9.211686511826708 4.25237084592881 -27.74265277704223 -1 2 0
1176 786 5 0.417 15.441947361674515 4.349997869227355 -25.5660919170243 -2 -2 0
2561 1248 5 0.417 8.064971014785337 3.7119737603017833 -26.915059969981684 -1 2 0
1174 786 7 -0.834 15.465250745081311 3.4165337992968126 -25.77664757557539 -2 -2 0
1175 786 5 0.417 14.68749555225252 3.055137658065384 -25.351533770384876 -2 -2 0
1292 825 5 0.417 20.59295832635907 7.099890314721034 -19.023729508172313 -2 3 0
345 509 5 0.417 6.692169646351159 6.072140142808973 -25.78848417539078 0 -1 0
2764 1316 7 -0.834 8.835243376517193 -0.18178654016166154 -26.260876599959087 -6 4 0
1346 843 5 0.417 1.6420164609985077 2.4172870164331055 -20.438839594901207 -1 -3 0
2765 1316 5 0.417 8.384950171953287 0.46025851546607316 -26.809735627738522 -6 4 0
2678 1287 5 0.417 28.363242903568533 1.8389553970443648 -19.26459134489631 0 1 0
1923 1035 5 0.417 2.8302323409529158 0.33083624165020586 -26.817527462968584 -2 1 0
3454 21 4 0 13.457057940972692 0.9692050083321784 -30 0 0 0
3457 24 4 0 13.467657809854444 3.6411374240366454 -30 0 0 0
3458 25 4 0 15.746032894046737 0.9718473681955178 -30 0 0 0
3459 26 4 0 14.602462097497067 1.643754562481868 -30 0 0 0
3460 27 4 0 14.612246355196485 2.974200274823815 -30 0 0 0
3461 28 4 0 15.751397897168806 3.645223811182384 -30 0 0 0
3462 29 4 0 18.024788426508742 0.969924741337981 -30 0 0 0
3463 30 4 0 16.88653450349527 1.6470485917739344 -30 0 0 0
3464 31 4 0 16.890184696793686 2.9772490591520895 -30 0 0 0
3465 32 4 0 18.030886516595626 3.651644405048746 -30 0 0 0
3467 34 4 0 19.16679293677664 1.6472445128842916 -30 0 0 0
3468 35 4 0 19.166347949068463 2.9779448239273774 -30 0 0 0
3510 77 4 0 13.475855240279099 4.973418759177728 -30 0 0 0
3514 81 4 0 15.763244272034568 4.976319021318958 -30 0 0 0
3515 82 4 0 14.619980519359453 5.646688491564345 -30 0 0 0
3518 85 4 0 18.04440249453151 4.981758092817505 -30 0 0 0
3519 86 4 0 16.905990742409276 5.6506643192753 -30 0 0 0
3523 90 4 0 19.187061405721614 5.65289993343636 -30 0 0 0
3516 83 4 0 14.636185853490142 6.975264163206457 -30 0 0 0
3520 87 4 0 16.916545978488987 6.982038722872367 -30 0 0 0
3524 91 4 0 19.200177713722123 6.981509882343611 -30 0 0 0
3513 80 4 0 13.498606613491429 7.640717422847788 -30 0 0 0
3517 84 4 0 15.77513964226859 7.651017157962751 -30 0 0 0
3521 88 4 0 18.060950046683907 7.652399378309692 -30 0 0 0
2220 1134 5 0.417 1.9929059379516059 8.201330780273082 -19.610861148599604 -2 3 0
2240 1141 5 0.417 -0.08512288871767026 15.732960762584664 -22.506981911157844 -5 0 0
1195 793 7 -0.834 13.010039655302116 8.212296614550475 -26.719530227699284 1 2 0
2270 1151 5 0.417 15.81918514087788 14.219999580632821 -21.4110427298269 0 0 0
573 585 5 0.417 21.68312241842025 9.969570424870655 -24.715269178224357 -1 -1 0
572 585 5 0.417 22.508905460553077 10.808203224817595 -25.66746318004786 -1 -1 0
571 585 7 -0.834 22.58456990842291 10.222964714381272 -24.913803502667935 -1 -1 0
2082 1088 5 0.417 19.621851933991483 3.4292357605303456 -26.2094110616047 -8 0 0
2080 1088 7 -0.834 18.715180371479338 3.451906417134452 -25.903364312629293 -8 0 0
2081 1088 5 0.417 18.417869453729196 2.5442316044165634 -25.966328556752604 -8 0 0
1196 793 5 0.417 12.228862709561124 8.661311879550517 -26.3964516417389 1 2 0
1197 793 5 0.417 12.874251018567515 7.294641132112238 -26.48351779359707 1 2 0
1735 973 7 -0.834 24.89023228673784 5.6866550403756015 -26.73755726495051 -2 1 0
1736 973 5 0.417 24.717397204313748 5.975251062705432 -27.633700358591437 -2 1 0
1737 973 5 0.417 25.03005624497896 4.74266811466836 -26.81219006258085 -2 1 0
3466 33 4 0 20.303370807283528 0.969990406185647 -30 0 0 0
3469 36 4 0 20.310550188089838 3.651172324182581 -30 0 0 0
3470 37 4 0 22.57257030559779 0.9666785874892366 -30 0 0 0
3471 38 4 0 21.436425418648444 1.644753098402088 -30 0 0 0
3472 39 4 0 21.445670311334784 2.9736759846503023 -30 0 0 0
3473 40 4 0 22.5858172320073 3.638765056921054 -30 0 0 0
3474 41 4 0 24.86360962307437 0.9591171565805688 -30 0 0 0
3475 42 4 0 23.720846047280332 1.6374133817823058 -30 0 0 0
3476 43 4 0 23.70945111997062 2.9601831862225283 -30 0 0 0
3477 44 4 0 24.84651506729258 3.62022416947932 -30 0 0 0
3522 89 4 0 20.319965380618573 4.981946014111578 -30 0 0 0
3526 93 4 0 22.589032548966532 4.968708466214972 -30 0 0 0
3527 94 4 0 21.45993537658109 5.652430609081914 -30 0 0 0
3530 97 4 0 24.879897384330487 4.945353591885498 -30 0 0 0
3531 98 4 0 23.751393740201216 5.627834391294775 -30 0 0 0
3479 46 4 0 26.020566960291166 1.599896393094591 -30 0 0 0
3480 47 4 0 25.979336293567542 2.9287800760560927 -30 0 0 0
3535 102 4 0 26.018384858370126 5.599415713120286 -30 0 0 0
3528 95 4 0 21.485917105803413 6.9774738174888435 -30 0 0 0
3532 99 4 0 23.760911540269753 6.963325121397955 -30 0 0 0
3536 103 4 0 26.06479654814311 6.916575877788769 -30 0 0 0
3525 92 4 0 20.349501824275453 7.6497594416625745 -30 0 0 0
3529 96 4 0 22.62984529183038 7.644712772078205 -30 0 0 0
3533 100 4 0 24.933611373776507 7.610330961483509 -30 0 0 0
1438 874 7 -0.834 22.109813583360577 3.9898320959442666 -26.787880218410272 -2 5 0
1439 874 5 0.417 21.79840610421178 4.7763043220050285 -26.339863619746243 -2 5 0
1440 874 5 0.417 23.026606809744695 3.9106345173994166 -26.524346921686966 -2 5 0
1568 917 5 0.417 22.50407442693887 14.555684763983571 -24.36143747925781 2 1 0
1577 920 5 0.417 29.739819792512666 6.15006204387463 -19.729250093343175 -1 2 0
2720 1301 5 0.417 27.584848271462086 12.597259055562148 -20.073390058008147 -4 2 0
507 563 5 0.417 15.129873316774177 10.667702859560597 -19.499196429958655 2 0 0
2913 1365 5 0.417 27.3441617559855 8.35107943802792 -26.06280239059202 0 2 0
3486 53 4 0 31.530942255651837 1.0175428953583552 -30 0 0 0
3489 56 4 0 31.32982185550236 4.866745967881402 -30 0 0 0
3542 109 4 0 31.91224578923131 3.821740022056468 -30 0 0 0
3478 45 4 0 27.185559652335446 0.9471485221373929 -30 0 0 0
3481 48 4 0 27.11526318794464 3.5750531184491616 -30 0 0 0
3482 49 4 0 29.60310662007612 1.1305287512792668 -30 0 0 0
3483 50 4 0 28.339858684193782 1.6006731692872933 -30 0 0 0
3484 51 4 0 28.229031415180476 2.8833787926529117 -30 0 0 0
3485 52 4 0 29.29956036530563 3.5951174432000186 -30 0 0 0
3487 54 4 0 30.644560735113473 2.065427067977613 -30 0 0 0
3488 55 4 0 30.574785103027104 3.5217469475318857 -30 0 0 0
3534 101 4 0 27.129944915017905 4.904416319393515 -30 0 0 0
3538 105 4 0 29.394662593425732 4.792652245909919 -30 0 0 0
3539 106 4 0 28.30504047880683 5.532161040319768 -30 0 0 0
3543 110 4 0 30.747399904958776 4.894581458445157 -30 0 0 0
3544 111 4 0 30.70371455593742 6.3966039894741336 -30 0 0 0
3540 107 4 0 28.35922440341593 6.822960853263939 -30 0 0 0
3545 112 4 0 31.706144094553753 7.301071172136373 -30 0 0 0
3537 104 4 0 27.23658354022634 7.541366170230836 -30 0 0 0
3541 108 4 0 29.594311235332835 7.295322891427931 -30 0 0 0
2340 1174 5 0.417 28.68690079644019 4.603427887137505 -25.93556876394277 -4 -2 0
2338 1174 7 -0.834 28.826372096766782 3.6631721500354395 -25.822879318208958 -4 -2 0
2339 1174 5 0.417 29.22943485021257 3.582248513424271 -24.958458251427306 -4 -2 0
268 484 7 -0.834 28.47477894997777 13.616376230812252 -23.508143751895773 -8 -4 0
1423 869 7 -0.834 8.738523280155153 15.597149070697927 -25.4411782778897 -4 2 0
1578 920 5 0.417 29.69340258137643 5.361917875871604 -21.020981278975913 -1 2 0
2854 1346 7 -0.834 -0.017772536596648892 3.8379468087034216 -24.24152041957081 -1 2 0
1835 1006 5 0.417 10.274988412651904 5.346685126630969 -19.44846058504752 -1 0 0
2855 1346 5 0.417 0.6517106447775217 3.611617824533552 -24.887120582004965 -1 2 0
3546 113 4 0 2.0782767527102517 9.050676367063044 -30 0 0 0
3549 116 4 0 2.137157361553275 11.695792587686585 -30 0 0 0
3550 117 4 0 4.375531203394257 9.013242908720724 -30 0 0 0
3551 118 4 0 3.236502834735637 9.692433858153294 -30 0 0 0
3552 119 4 0 3.2672915228555395 11.016043064867388 -30 0 0 0
3553 120 4 0 4.414948519296649 11.675912042888754 -30 0 0 0
3555 122 4 0 5.526415159504094 9.66476657489942 -30 0 0 0
3556 123 4 0 5.546988312823645 10.9891652561713 -30 0 0 0
3606 173 4 0 4.413868686926989 12.996570751787576 -30 0 0 0
3547 114 4 0 0.9190473645607186 9.713234974481665 -30 0 0 0
3548 115 4 0 0.9932244923345496 11.05975412650161 -30 0 0 0
3602 169 4 0 2.1267496375707635 13.011462822781244 -30 0 0 0
3605 172 4 0 2.1358021777699503 15.647956935331075 -30 0 0 0
3607 174 4 0 3.2748892361012536 13.665031938555199 -30 0 0 0
3608 175 4 0 3.2786781893288377 14.985649100314575 -30 0 0 0
3609 176 4 0 4.421569455612135 15.64587948424627 -30 0 0 0
3611 178 4 0 5.5572895359883105 13.651046313998284 -30 0 0 0
3612 179 4 0 5.562360722065402 14.978138639972412 -30 0 0 0
3603 170 4 0 0.9704156319774769 13.661266203018995 -30 0 0 0
3604 171 4 0 0.9855124656501615 15.003697279042745 -30 0 0 0
806 663 5 0.417 1.2034973395690196 10.063097863935011 -27.024973486016073 -3 4 0
805 663 7 -0.834 0.9592451411133542 10.589777307545885 -26.263933748666584 -3 4 0
807 663 5 0.417 1.19179833381718 10.046120540102814 -25.511213227727 -3 4 0
2326 1170 7 -0.834 3.7436720907456653 14.977713281559202 -23.1398531853153 1 1 0
2328 1170 5 0.417 3.085420769449137 14.288441169621791 -23.05130107944589 1 1 0
260 481 5 0.417 2.2382597321600146 0.29725908507126353 -19.02423270205776 -1 -2 0
2289 1157 5 0.417 4.5975925421416886 0.5880032935341318 -25.083799757955795 0 2 0
2623 1269 7 -0.834 5.828556934989303 11.77172435629447 -26.979622295638766 1 0 0
2625 1269 5 0.417 6.259660866947914 12.417778338579767 -26.420162274210142 1 0 0
2624 1269 5 0.417 6.547784917788967 11.29080535102724 -27.38908519215396 1 0 0
259 481 7 -0.834 2.176288696520192 0.23366632727187173 -19.977305324389413 -1 -2 0
2677 1287 7 -0.834 27.642496038438054 2.2191849112121322 -18.76241408436622 0 1 0
910 698 7 -0.834 5.807681481628359 16.24324715365168 -24.978359959640784 0 -1 0
261 481 5 0.417 3.02571062746988 0.5408793734069024 -20.29406163317229 -1 -2 0
3554 121 4 0 6.6643862952435615 8.988140622999408 -30 0 0 0
3557 124 4 0 6.690444768005322 11.65846661774924 -30 0 0 0
3610 177 4 0 6.693731888522613 12.982226504578996 -30 0 0 0
3558 125 4 0 8.94387868503273 8.969261733825487 -30 0 0 0
3559 126 4 0 7.812164492188543 9.651234026894764 -30 0 0 0
3560 127 4 0 7.821859487221355 10.97644510320327 -30 0 0 0
3561 128 4 0 8.963750041426225 11.64465789244608 -30 0 0 0
3562 129 4 0 11.226384247660842 8.969421650350935 -30 0 0 0
3563 130 4 0 10.089739509935752 9.640309190812403 -30 0 0 0
3564 131 4 0 10.100617916361749 10.972567941917038 -30 0 0 0
3565 132 4 0 11.244166022121279 11.641162737520354 -30 0 0 0
3567 134 4 0 12.366305135689183 9.642207860654777 -30 0 0 0
3568 135 4 0 12.381606778260586 10.97090944501671 -30 0 0 0
3614 181 4 0 8.974892534042752 12.973266300302482 -30 0 0 0
3618 185 4 0 11.247702313576436 12.971737860257361 -30 0 0 0
3613 180 4 0 6.700847994851891 15.646135851787259 -30 0 0 0
3615 182 4 0 7.836266571843499 13.644083025812998 -30 0 0 0
3616 183 4 0 7.838572560841839 14.976545000926523 -30 0 0 0
3617 184 4 0 8.980097538203923 15.643490176023002 -30 0 0 0
3619 186 4 0 10.111542272982357 13.645420360066117 -30 0 0 0
3620 187 4 0 10.113184926520187 14.972026399175574 -30 0 0 0
3621 188 4 0 11.25150675155674 15.640698452189868 -30 0 0 0
3623 190 4 0 12.389313991869441 13.641764991538299 -30 0 0 0
3624 191 4 0 12.392990706086442 14.971825407795246 -30 0 0 0
872 685 5 0.417 8.530480358575257 13.482945391341747 -25.273549311074927 -15 7 0
269 484 5 0.417 28.05904428162558 12.823344600416757 -23.169769073221858 -8 -4 0
871 685 7 -0.834 8.918398853621508 12.964667399148073 -25.978630400193207 -15 7 0
873 685 5 0.417 8.57080029655968 12.08254065409897 -25.847253831158444 -15 7 0
1141 775 7 -0.834 15.095962574962758 1.0256971109135735 -26.822848122204462 -3 5 0
1249 811 7 -0.834 15.980051115136211 10.86001052231218 -24.728145621422087 0 -4 0
1250 811 5 0.417 16.70008801739825 11.041186347343553 -25.332259899202764 0 -4 0
1251 811 5 0.417 15.332762488657405 10.395504913699273 -25.258696204822233 0 -4 0
1864 1016 7 -0.834 15.03561391008428 13.195620206245314 -26.963973345638085 -4 -3 0
3566 133 4 0 13.505857668847069 8.973395271620259 -30 0 0 0
3569 136 4 0 13.520509091747723 11.64494427942433 -30 0 0 0
3570 137 4 0 15.795511843789228 8.97830408393035 -30 0 0 0
3571 138 4 0 14.654999724963023 9.64493603950514 -30 0 0 0
3572 139 4 0 14.657972407194876 10.976714466348508 -30 0 0 0
3573 140 4 0 15.80176906080586 11.646020790636884 -30 0 0 0
3574 141 4 0 18.06863761796098 8.983703431875806 -30 0 0 0
3575 142 4 0 16.930112376440846 9.649484267243562 -30 0 0 0
3576 143 4 0 16.945095560347188 10.975573728345166 -30 0 0 0
3577 144 4 0 18.089111001347842 11.649713257676337 -30 0 0 0
3579 146 4 0 19.220270519623174 9.653413981181963 -30 0 0 0
3580 147 4 0 19.229310217188345 10.983201326270745 -30 0 0 0
3622 189 4 0 13.52803617738703 12.972624157677698 -30 0 0 0
3626 193 4 0 15.806220421663433 12.9765503394185 -30 0 0 0
3630 197 4 0 18.09671451907967 12.977661175620554 -30 0 0 0
3625 192 4 0 13.530818009787321 15.64324313718018 -30 0 0 0
3627 194 4 0 14.66645708837751 13.64336754230122 -30 0 0 0
3628 195 4 0 14.67020285850671 14.972686182580654 -30 0 0 0
3629 196 4 0 15.81182244127531 15.643422638954645 -30 0 0 0
3631 198 4 0 16.952193201012772 13.644263505219651 -30 0 0 0
3632 199 4 0 16.954760759943234 14.975702199800663 -30 0 0 0
3633 200 4 0 18.09754090013027 15.643905655441873 -30 0 0 0
3635 202 4 0 19.238108562947733 13.64482744007326 -30 0 0 0
3636 203 4 0 19.239706492683048 14.972756756013329 -30 0 0 0
1866 1016 5 0.417 15.797776615223855 12.791356132617384 -26.549352397353438 -4 -3 0
1865 1016 5 0.417 14.701622229822263 12.524134635545229 -27.558774860750276 -4 -3 0
990 724 5 0.417 18.32465442480611 14.372271757330344 -27.001065719773976 1 -9 0
989 724 5 0.417 19.68759103503654 14.565985012750954 -26.37116555364014 1 -9 0
988 724 7 -0.834 18.886485624948705 15.036421200022199 -26.601712409858372 1 -9 0
356 513 5 0.417 15.54087241056961 8.061487227185527 -26.435007861396645 0 3 0
2911 1365 7 -0.834 27.458399932366145 7.987252476023672 -26.940761282024887 0 2 0
2912 1365 5 0.417 28.26286191751938 7.471638230632514 -26.884062791292138 0 2 0
2250 1144 5 0.417 29.17014696877262 11.649791362651527 -27.10444470074234 -1 0 0
3578 145 4 0 20.363298576763636 8.980335794948227 -30 0 0 0
3581 148 4 0 20.374684799808023 11.645472421415665 -30 0 0 0
3582 149 4 0 22.65127279731396 8.966277285579345 -30 0 0 0
3583 150 4 0 21.514023095151032 9.640236467927936 -30 0 0 0
3584 151 4 0 21.520591829435453 10.974959867932675 -30 0 0 0
3585 152 4 0 22.674195321233306 11.634874347863894 -30 0 0 0
3586 153 4 0 24.944730901742805 8.945309995604381 -30 0 0 0
3587 154 4 0 23.802750820768768 9.623408434898579 -30 0 0 0
3588 155 4 0 23.81403163066315 10.953235645631596 -30 0 0 0
3589 156 4 0 24.971526497539195 11.60577715855629 -30 0 0 0
3634 201 4 0 20.381328007026852 12.97535369656517 -30 0 0 0
3638 205 4 0 22.673266021886263 12.96550347439183 -30 0 0 0
3642 209 4 0 24.967381721012195 12.94464630043098 -30 0 0 0
3591 158 4 0 26.113998296554893 9.577342282401885 -30 0 0 0
3592 159 4 0 26.105994404888683 10.905702199221599 -30 0 0 0
3637 204 4 0 20.388824186612464 15.640547343498065 -30 0 0 0
3639 206 4 0 21.53257751791 13.64228068521417 -30 0 0 0
3640 207 4 0 21.53420560453174 14.972367006614489 -30 0 0 0
3641 208 4 0 22.677228781753726 15.64107185042623 -30 0 0 0
3643 210 4 0 23.823835649135223 13.626411747369803 -30 0 0 0
3644 211 4 0 23.821720061762537 14.966485696600122 -30 0 0 0
3645 212 4 0 24.96832084439561 15.636197625156742 -30 0 0 0
3647 214 4 0 26.11627929452282 13.600046003481124 -30 0 0 0
3648 215 4 0 26.105817366847443 14.947233270945109 -30 0 0 0
1416 866 5 0.417 24.337648644297982 13.289466638280963 -25.529132850574253 -3 0 0
1414 866 7 -0.834 25.01379298973472 12.657737455281248 -25.77403964588977 -3 0 0
1415 866 5 0.417 25.562329767638154 12.57865181872039 -24.993600756415596 -3 0 0
895 693 7 -0.834 12.204819522354283 0.7624122150348176 -26.898860712674743 -3 3 0
2000 1061 5 0.417 24.838798658172017 8.799208089614297 -23.031281399108853 -3 3 0
453 545 5 0.417 29.582827225533453 15.009521377892622 -26.678758130708793 -2 2 0
451 545 7 -0.834 29.085590090227953 14.315636745563646 -27.111783929150416 -2 2 0
452 545 5 0.417 29.37066748081693 14.350130273594644 -28.024896010627668 -2 2 0
2248 1144 7 -0.834 28.788933675099788 10.901658562169109 -26.64487333215006 -1 0 0
2249 1144 5 0.417 27.84784673613465 10.977261272843526 -26.802581685562135 -1 0 0
799 661 7 -0.834 31.520997536227345 10.873122034427825 -24.075846284146714 -5 0 0
800 661 5 0.417 31.271505218347098 11.268182318281971 -24.91125805814162 -5 0 0
3598 165 4 0 31.772203008732575 8.662354706901501 -30 0 0 0
3601 168 4 0 31.742903910191433 11.50357613133681 -30 0 0 0
3654 221 4 0 31.765883408206246 12.861773839297598 -30 0 0 0
3590 157 4 0 27.248795246341288 8.869603917419436 -30 0 0 0
3593 160 4 0 27.26170996762557 11.551906627972793 -30 0 0 0
3594 161 4 0 29.564139543616857 8.689255955229306 -30 0 0 0
3595 162 4 0 28.438490513483575 9.452461663425481 -30 0 0 0
3596 163 4 0 28.399576829444662 10.818801889212384 -30 0 0 0
3597 164 4 0 29.525310977190056 11.513844717770477 -30 0 0 0
3599 166 4 0 30.672541725869454 9.406030289103967 -30 0 0 0
3600 167 4 0 30.63995061895994 10.77843786336748 -30 0 0 0
3646 213 4 0 27.250368688320652 12.903334414891914 -30 0 0 0
3650 217 4 0 29.515272585017364 12.870421293264783 -30 0 0 0
3657 224 4 0 31.750607512302448 15.627317448294656 -30 0 0 0
3649 216 4 0 27.242352627444482 15.630496978407024 -30 0 0 0
3651 218 4 0 28.38769586902855 13.574743081171016 -30 0 0 0
3652 219 4 0 28.374110643216472 14.931845807882452 -30 0 0 0
3653 220 4 0 29.504174452350806 15.627305807364097 -30 0 0 0
3655 222 4 0 30.640671259427208 13.568600975286076 -30 0 0 0
3656 223 4 0 30.630197121703226 14.921879484474426 -30 0 0 0
801 661 5 0.417 32.35001262302847 10.43054110312731 -24.257748691214914 -5 0 0
1615 933 7 -0.834 4.206571518780232 2.3063511206564313 -20.832822100977484 -1 -4 0
1616 933 5 0.417 3.371949721212994 1.8765948769918255 -20.645878402493004 -1 -4 0
1617 933 5 0.417 4.153836000569478 3.143712763345269 -20.372087592727972 -1 -4 0
1554 912 5 0.417 5.246299584446683 2.2843094169713294 -25.831790731873465 1 1 0
1033 739 7 -0.834 16.056208927809564 6.290907271279268 -23.91733000460294 0 0 0
1552 912 7 -0.834 5.163827421688922 2.9591682491885973 -26.50558293935319 1 1 0
1345 843 7 -0.834 1.1044036184946098 3.17361678130689 -20.673721703574255 -1 -3 0
2287 1157 7 -0.834 4.475122410754473 0.8280949764070729 -24.165328414621552 0 2 0
1743 975 5 0.417 31.032099287456195 14.712661422951117 -18.752853947550534 -3 1 0
1280 821 5 0.417 6.1853776746758955 7.716217875700033 -21.72511248352903 1 2 0
512 565 5 0.417 -0.06762201217431145 6.514736916199694 -21.325045538824927 -6 1 0
511 565 7 -0.834 0.8139744314611697 6.243044961060965 -21.069696247677307 -6 1 0
513 565 5 0.417 1.0118761008839505 6.768372399250938 -20.294391122919563 -6 1 0
1281 821 5 0.417 4.921934396207091 8.06444733332958 -22.482966427865488 1 2 0
1279 821 7 -0.834 5.338055464696087 7.357780808305622 -21.98930913152212 1 2 0
754 646 7 -0.834 15.776460936349444 1.2551513399155239 -19.174149766100776 -5 4 0
1599 927 5 0.417 18.925134622293548 3.2805811683936668 -19.8314031005499 -1 4 0
1347 843 5 0.417 1.070052795870209 3.155902938221563 -21.63014115270338 -1 -3 0
987 723 5 0.417 0.003121849849143779 0.9987110055276571 -24.38712452439611 -8 4 0
1490 891 5 0.417 23.283824765932003 0.863508129780514 -26.2810928328286 0 -7 0
605 596 5 0.417 9.479688636193098 14.536826151361435 -21.97356665949972 0 0 0
1828 1004 7 -0.834 3.502484111245815 5.50661052251353 -20.30463389748106 2 1 0
1310 831 5 0.417 32.562881718347676 5.583379485257945 -26.56372117780648 0 0 0
896 693 5 0.417 12.630664732874312 1.5571729666603373 -27.220175376587502 -3 3 0
2433 1205 5 0.417 7.823962601579327 1.9052959124943838 -24.203307167650056 0 -1 0
2431 1205 7 -0.834 8.015202518189849 1.7760925495282198 -23.274347704584855 0 -1 0
818 667 5 0.417 11.242761555751791 3.8993670876071422 -22.651127135586226 -5 -1 0
2432 1205 5 0.417 7.8863439721861806 2.638955746181905 -22.8805271024664 0 -1 0
2264 1149 5 0.417 2.606894948319274 3.9672176031224273 -24.36555560019657 -9 -5 0
718 634 7 -0.834 7.476683432508763 1.1787523275060436 -19.45208078110638 -4 2 0
493 559 7 -0.834 28.044281695181667 9.134880023273851 -23.16779241231111 -16 -10 0
1489 891 7 -0.834 22.874736619244814 0.13851103227677386 -26.75359468535092 0 -7 0
819 667 5 0.417 12.063823678398649 2.757352210535275 -23.21108712356236 -5 -1 0
817 667 7 -0.834 11.343710576675658 2.94838897867266 -22.610109444820672 -5 -1 0
544 576 7 -0.834 10.517761726252889 9.455148787482008 -18.927678562712035 1 -1 0
1836 1006 5 0.417 11.517279291509174 5.8713716268444704 -20.136438200428437 -1 0 0
1142 775 5 0.417 15.96305865459439 1.0548190966934876 -26.418461944210854 -3 5 0
1834 1006 7 -0.834 11.211878734301324 5.489190751496665 -19.313698466219662 -1 0 0
193 459 7 -0.834 14.636387252883733 7.262530949516825 -20.045505172557853 -3 0 0
195 459 5 0.417 15.561091746937793 7.456138853992879 -20.199354873222912 -3 0 0
1004 729 5 0.417 28.851364510083737 2.3819305016743026 -20.601053772236234 1 0 0
2215 1133 7 -0.834 19.269555778732894 5.028298193076002 -22.055498065343535 0 -1 0
194 459 5 0.417 14.242007755062717 7.26658871175993 -20.917675137517616 -3 0 0
1597 927 7 -0.834 18.23616886952579 2.6937078983136415 -19.51973359013458 -1 4 0
1540 908 7 -0.834 8.939920358018716 15.990276969366255 -19.805589440626495 1 0 0
1003 729 7 -0.834 28.719441181037283 2.209301003195051 -21.533270084667773 1 0 0
2938 1374 7 -0.834 19.698666660082264 7.9132429525553825 -24.41987190474079 0 0 0
1885 1023 7 -0.834 18.711868824289702 0.5193084331810738 -26.308498127028233 2 0 0
2939 1374 5 0.417 18.928047865971887 8.12479769564076 -24.9467714912016 0 0 0
2940 1374 5 0.417 20.246733230870966 7.38297497863985 -24.998379616692027 0 0 0
1640 941 5 0.417 19.300894972106875 10.633136819602056 -23.58953903729706 -2 0 0
1639 941 7 -0.834 19.334232625890497 11.303748397947698 -22.907336316219048 -2 0 0
2217 1133 5 0.417 18.76472831842667 5.544491859176976 -21.427067339045227 0 -1 0
2453 1212 5 0.417 7.872687226825301 9.721777418509202 -19.36731741359779 0 -4 0
2722 1302 7 -0.834 17.412835259689917 6.370152248882957 -20.001052533918187 -1 -1 0
2518 1234 7 -0.834 16.853811805603836 1.6422900701919851 -22.259557022010817 -3 -8 0
2390 1191 5 0.417 25.894743705914255 15.063282455693493 -27.099777270446356 0 -4 0
2219 1134 5 0.417 1.312254688002879 8.812213180621425 -20.817274019904804 -2 3 0
1641 941 5 0.417 19.068153508860252 10.847456862896317 -22.10906831976792 -2 0 0
2387 1190 5 0.417 31.410457905732446 15.20914139164314 -26.739460319474812 -4 -1 0
2723 1302 5 0.417 18.038851315945273 6.259413198799909 -19.28546003608948 -1 -1 0
2724 1302 5 0.417 17.14642685269574 5.478950054957766 -20.226922330309073 -1 -1 0
394 526 7 -0.834 23.80817568826862 2.0490003370833545 -21.57814345782584 -1 1 0
1344 842 5 0.417 22.815138249216798 5.068986130058097 -21.60247174077901 -1 3 0
2161 1115 7 -0.834 24.775453137877868 1.9753949622118945 -25.203685395086755 0 0 0
2163 1115 5 0.417 24.601427567848898 1.631336885244985 -26.07979679050473 0 0 0
1343 842 5 0.417 23.933200296727897 5.4634026789257595 -22.543889845571105 -1 3 0
1342 842 7 -0.834 23.083722472852465 5.755377012672983 -22.213177954797466 -1 3 0
2162 1115 5 0.417 24.7194028461771 2.92571929859558 -25.30355506314362 0 0 0
2007 1063 5 0.417 24.907054042965612 10.717494997405396 -20.397021054724775 0 1 0
698 627 5 0.417 25.43354609229618 5.39504176167949 -20.915550843172397 -1 2 0
697 627 7 -0.834 26.3542437599013 5.2989555121733884 -21.159097720418476 -1 2 0
395 526 5 0.417 23.457309976916523 1.168315843658952 -21.445780390409105 -1 1 0
396 526 5 0.417 23.73500958170844 2.1972874152060773 -22.520952843552223 -1 1 0
2005 1063 7 -0.834 23.967636069257303 10.677401746273523 -20.57623740977353 0 1 0
69 94 5 0.417 30.967897111148275 6.665133316159114 -27.848720565923713 -6 -1 0
1567 917 7 -0.834 21.91185973519677 14.174856513289177 -23.71299051728901 2 1 0
1829 1004 5 0.417 3.434352756692831 6.435808118982929 -20.52413744969404 2 1 0
1425 869 5 0.417 9.454535956205172 15.652528976591801 -26.074021812968628 -4 2 0
1143 775 5 0.417 14.584886513489465 0.45036751819978565 -26.253612613869315 -3 5 0
2241 1141 5 0.417 1.4052320575421062 15.467338558546974 -22.49344926158113 -5 0 0
495 559 5 0.417 27.27872318659959 9.407149997022874 -22.661807029726948 -16 -10 0
160 443 7 -0.834 1.4493825509707474 12.777686279284634 -24.453486015442838 -8 -2 0
985 723 7 -0.834 -0.10880987370143913 0.3825275917516602 -25.111017764193456 -8 4 0
1340 841 5 0.417 30.093956504775107 0.02821613262445238 -20.387767841180413 -4 0 0
606 596 5 0.417 10.07025468190834 13.156828581270604 -22.17037637242636 0 0 0
1830 1004 5 0.417 4.226268573928442 5.460023548529895 -19.679975543498426 2 1 0
2845 1343 7 -0.834 30.818710065091924 8.292405193414396 -21.258239626334372 -2 1 0
2846 1343 5 0.417 30.280651561571865 8.891863147288488 -21.77532291539671 -2 1 0
1339 841 7 -0.834 30.41187521838568 -0.10231068084169176 -21.28114475108287 -4 0 0
699 627 5 0.417 26.459843353331856 5.862629095751092 -21.925487085317172 -1 2 0
604 596 7 -0.834 9.57060992639707 13.837668725104784 -22.620980145149232 0 0 0