
     Program PWSCF v.7.3.1 starts on  4Nov2024 at 22: 2:11 

     This program is part of the open-source Quantum ESPRESSO suite
     for quantum simulation of materials; please cite
         "P. Giannozzi et al., J. Phys.:Condens. Matter 21 395502 (2009);
         "P. Giannozzi et al., J. Phys.:Condens. Matter 29 465901 (2017);
         "P. Giannozzi et al., J. Chem. Phys. 152 154105 (2020);
          URL http://www.quantum-espresso.org", 
     in publications or presentations arising from this work. More details at
     http://www.quantum-espresso.org/quote

     Parallel version (MPI), running on     1 processors

     MPI processes distributed on     1 nodes
     11847 MiB available memory on the printing compute node when the environment starts

     Waiting for input...
     Reading input from standard input

     Current dimensions of program PWSCF are:
     Max number of different atomic species (ntypx) = 10
     Max number of k-points (npk) =  40000
     Max angular momentum in pseudopotentials (lmaxx) =  4

     Subspace diagonalization in iterative solution of the eigenvalue problem:
     a serial algorithm will be used


     G-vector sticks info
     --------------------
     sticks:   dense  smooth     PW     G-vecs:    dense   smooth      PW
     Sum         163     163     61                 1411     1411     331

     Using Slab Decomposition



     bravais-lattice index     =            2
     lattice parameter (alat)  =       7.7000  a.u.
     unit-cell volume          =     114.1333 (a.u.)^3
     number of atoms/cell      =            1
     number of atomic types    =            1
     number of electrons       =        10.00
     number of Kohn-Sham states=           10
     kinetic-energy cutoff     =      20.0000  Ry
     charge density cutoff     =      80.0000  Ry
     scf convergence threshold =      1.0E-08
     mixing beta               =       0.7000
     number of iterations used =            8  plain     mixing
     Exchange-correlation=  SLA  PZ   NOGX NOGC
                           (   1   1   0   0   0   0   0)
     Non magnetic calculation with spin-orbit


     celldm(1)=   7.700000  celldm(2)=   0.000000  celldm(3)=   0.000000
     celldm(4)=   0.000000  celldm(5)=   0.000000  celldm(6)=   0.000000

     crystal axes: (cart. coord. in units of alat)
               a(1) = (  -0.500000   0.000000   0.500000 )  
               a(2) = (   0.000000   0.500000   0.500000 )  
               a(3) = (  -0.500000   0.500000   0.000000 )  

     reciprocal axes: (cart. coord. in units 2 pi/alat)
               b(1) = ( -1.000000 -1.000000  1.000000 )  
               b(2) = (  1.000000  1.000000  1.000000 )  
               b(3) = ( -1.000000  1.000000 -1.000000 )  


     PseudoPot. # 1 for Pt read from file:
     /home/dashlander/Desktop/Sem7/CPD/Assignment_3/pseudo/Pt.rel-pz-n-rrkjus.UPF
     MD5 check sum: 4baafe8ec1942611396c7a5466f52249
     Pseudo is Ultrasoft + core correction, Zval = 10.0
     Generated by new atomic code, or converted to UPF format
     Using radial grid of 1277 points,  6 beta functions with: 
                l(1) =   2
                l(2) =   2
                l(3) =   2
                l(4) =   2
                l(5) =   1
                l(6) =   1
     Q(r) pseudized with 0 coefficients 


     atomic species   valence    mass     pseudopotential
     Pt               10.00   195.08400     Pt( 1.00)

     48 Sym. Ops., with inversion, found



   Cartesian axes

     site n.     atom                  positions (alat units)
         1        Pt     tau(   1) = (   0.0000000   0.0000000   0.0000000  )

     number of k points=    35
                       cart. coord. in units 2pi/alat
        k(    1) = (   0.0000000   0.0000000   0.0000000), wk =   0.0013717
        k(    2) = (  -0.1111111   0.1111111  -0.1111111), wk =   0.0109739
        k(    3) = (  -0.2222222   0.2222222  -0.2222222), wk =   0.0109739
        k(    4) = (  -0.3333333   0.3333333  -0.3333333), wk =   0.0109739
        k(    5) = (  -0.4444444   0.4444444  -0.4444444), wk =   0.0109739
        k(    6) = (   0.0000000   0.2222222   0.0000000), wk =   0.0082305
        k(    7) = (  -0.1111111   0.3333333  -0.1111111), wk =   0.0329218
        k(    8) = (  -0.2222222   0.4444444  -0.2222222), wk =   0.0329218
        k(    9) = (  -0.3333333   0.5555556  -0.3333333), wk =   0.0329218
        k(   10) = (   0.5555556  -0.3333333   0.5555556), wk =   0.0329218
        k(   11) = (   0.4444444  -0.2222222   0.4444444), wk =   0.0329218
        k(   12) = (   0.3333333  -0.1111111   0.3333333), wk =   0.0329218
        k(   13) = (   0.2222222  -0.0000000   0.2222222), wk =   0.0164609
        k(   14) = (   0.0000000   0.4444444   0.0000000), wk =   0.0082305
        k(   15) = (  -0.1111111   0.5555556  -0.1111111), wk =   0.0329218
        k(   16) = (  -0.2222222   0.6666667  -0.2222222), wk =   0.0329218
        k(   17) = (   0.6666667  -0.2222222   0.6666667), wk =   0.0329218
        k(   18) = (   0.5555556  -0.1111111   0.5555556), wk =   0.0329218
        k(   19) = (   0.4444444   0.0000000   0.4444444), wk =   0.0164609
        k(   20) = (   0.0000000   0.6666667   0.0000000), wk =   0.0082305
        k(   21) = (  -0.1111111   0.7777778  -0.1111111), wk =   0.0329218
        k(   22) = (   0.7777778  -0.1111111   0.7777778), wk =   0.0329218
        k(   23) = (   0.6666667  -0.0000000   0.6666667), wk =   0.0164609
        k(   24) = (   0.0000000   0.8888889   0.0000000), wk =   0.0082305
        k(   25) = (   0.8888889   0.0000000   0.8888889), wk =   0.0164609
        k(   26) = (  -0.2222222   0.4444444   0.0000000), wk =   0.0329218
        k(   27) = (  -0.3333333   0.5555556  -0.1111111), wk =   0.0658436
        k(   28) = (   0.5555556  -0.3333333   0.7777778), wk =   0.0658436
        k(   29) = (  -0.2222222   0.6666667   0.0000000), wk =   0.0329218
        k(   30) = (   0.6666667  -0.2222222   0.8888889), wk =   0.0658436
        k(   31) = (   0.5555556  -0.1111111   0.7777778), wk =   0.0658436
        k(   32) = (   0.4444444   0.0000000   0.6666667), wk =   0.0329218
        k(   33) = (   0.7777778  -0.1111111   1.0000000), wk =   0.0329218
        k(   34) = (   0.6666667  -0.0000000   0.8888889), wk =   0.0329218
        k(   35) = (   0.5555556  -0.1111111   1.0000000), wk =   0.0329218

     Dense  grid:     1411 G-vectors     FFT dimensions: (  15,  15,  15)

     Estimated max dynamical RAM per process >      13.44 MB

     Check: negative core charge=   -0.000046

     Initial potential from superposition of free atoms

     starting charge       9.9999, renormalised to      10.0000

     negative rho (up, down):  1.597E-04 0.000E+00
     Starting wfcs are   12 randomized atomic wfcs

     total cpu time spent up to now is        0.4 secs

     Self-consistent Calculation

     iteration #  1     ecut=    20.00 Ry     beta= 0.70
     Davidson diagonalization with overlap
     ethr =  1.00E-02,  avg # of iterations =  2.0

     Threshold (ethr) on eigenvalues was too large:
     Diagonalizing with lowered threshold

     Davidson diagonalization with overlap
     ethr =  3.66E-05,  avg # of iterations =  6.7

     negative rho (up, down):  2.410E-04 0.000E+00

     total cpu time spent up to now is        1.0 secs

     total energy              =     -69.45016278 Ry
     estimated scf accuracy    <       0.00253686 Ry

     iteration #  2     ecut=    20.00 Ry     beta= 0.70
     Davidson diagonalization with overlap
     ethr =  2.54E-05,  avg # of iterations =  2.3

     negative rho (up, down):  2.632E-04 0.000E+00

     total cpu time spent up to now is        1.2 secs

     total energy              =     -69.45076529 Ry
     estimated scf accuracy    <       0.00032319 Ry

     iteration #  3     ecut=    20.00 Ry     beta= 0.70
     Davidson diagonalization with overlap
     ethr =  3.23E-06,  avg # of iterations =  2.2

     negative rho (up, down):  2.797E-04 0.000E+00

     total cpu time spent up to now is        1.4 secs

     total energy              =     -69.45082431 Ry
     estimated scf accuracy    <       0.00001036 Ry

     iteration #  4     ecut=    20.00 Ry     beta= 0.70
     Davidson diagonalization with overlap
     ethr =  1.04E-07,  avg # of iterations =  6.4

     negative rho (up, down):  2.799E-04 0.000E+00

     total cpu time spent up to now is        1.7 secs

     total energy              =     -69.45083905 Ry
     estimated scf accuracy    <       0.00000242 Ry

     iteration #  5     ecut=    20.00 Ry     beta= 0.70
     Davidson diagonalization with overlap
     ethr =  2.42E-08,  avg # of iterations =  3.7

     negative rho (up, down):  2.801E-04 0.000E+00

     total cpu time spent up to now is        2.0 secs

     End of self-consistent calculation

          k = 0.0000 0.0000 0.0000 (   169 PWs)   bands (ev):

     5.7677   5.7677  11.2808  11.2808  11.2808  11.2808  12.2974  12.2974
    13.7413  13.7413

          k =-0.1111 0.1111-0.1111 (   169 PWs)   bands (ev):

     6.2027   6.2027  11.2524  11.2524  11.3612  11.3612  12.3877  12.3877
    13.6010  13.6010

          k =-0.2222 0.2222-0.2222 (   168 PWs)   bands (ev):

     7.3321   7.3321  11.2032  11.2032  11.4252  11.4252  12.6272  12.6272
    13.4986  13.4986

          k =-0.3333 0.3333-0.3333 (   171 PWs)   bands (ev):

     8.3553   8.3553  11.2986  11.2986  11.9688  11.9688  12.4395  12.4395
    14.1074  14.1074

          k =-0.4444 0.4444-0.4444 (   168 PWs)   bands (ev):

     8.5969   8.5969  11.1517  11.1517  12.1758  12.1758  14.0073  14.0073
    14.7023  14.7023

          k = 0.0000 0.2222 0.0000 (   169 PWs)   bands (ev):

     6.3497   6.3497  11.1220  11.1220  11.4904  11.4904  12.4437  12.4437
    13.4494  13.4494

          k =-0.1111 0.3333-0.1111 (   167 PWs)   bands (ev):

     7.2722   7.2722  10.9140  10.9140  11.6064  11.6064  12.7384  12.7384
    13.2953  13.2953

          k =-0.2222 0.4444-0.2222 (   171 PWs)   bands (ev):

     8.4537   8.4537  11.0622  11.0622  11.4585  11.4585  12.6302  12.6302
    13.9996  13.9996

          k =-0.3333 0.5556-0.3333 (   170 PWs)   bands (ev):

     8.9006   8.9006  11.1604  11.1604  12.1164  12.1164  12.6043  12.6043
    14.9016  14.9016

          k = 0.5556-0.3333 0.5556 (   168 PWs)   bands (ev):

     8.9398   8.9398  11.0992  11.0992  12.1661  12.1661  13.1846  13.1846
    14.8647  14.8647

          k = 0.4444-0.2222 0.4444 (   170 PWs)   bands (ev):

     8.8662   8.8662  11.2187  11.2187  12.0229  12.0229  12.4041  12.4041
    14.1716  14.1716

          k = 0.3333-0.1111 0.3333 (   166 PWs)   bands (ev):

     8.1128   8.1128  11.0115  11.0115  11.5107  11.5107  12.6987  12.6987
    13.3662  13.3662

          k = 0.2222-0.0000 0.2222 (   170 PWs)   bands (ev):

     6.8882   6.8882  11.0883  11.0883  11.5008  11.5008  12.5948  12.5949
    13.3272  13.3272

          k = 0.0000 0.4444 0.0000 (   169 PWs)   bands (ev):

     7.8728   7.8728  10.5135  10.5135  11.8404  11.8404  13.1346  13.1346
    13.2230  13.2230

          k =-0.1111 0.5556-0.1111 (   171 PWs)   bands (ev):

     8.8353   8.8353  10.2694  10.2694  11.7478  11.7478  13.2909  13.2909
    14.0146  14.0146

          k =-0.2222 0.6667-0.2222 (   175 PWs)   bands (ev):

     9.4171   9.4171  10.5777  10.5777  11.6012  11.6012  13.1065  13.1065
    14.9982  14.9982

          k = 0.6667-0.2222 0.6667 (   174 PWs)   bands (ev):

     9.6056   9.6056  10.7867  10.7867  11.9102  11.9102  12.9221  12.9221
    14.9247  14.9247

          k = 0.5556-0.1111 0.5556 (   173 PWs)   bands (ev):

     9.7809   9.7809  10.9122  10.9122  11.6410  11.6410  12.7441  12.7441
    14.2122  14.2122

          k = 0.4444 0.0000 0.4444 (   170 PWs)   bands (ev):

     9.3356   9.3356  10.8083  10.8083  11.3853  11.3853  12.7822  12.7822
    13.4508  13.4508

          k = 0.0000 0.6667 0.0000 (   174 PWs)   bands (ev):

     9.0217   9.0217   9.8042   9.8042  12.7841  12.7841  14.1034  14.1034
    14.1340  14.1340

          k =-0.1111 0.7778-0.1111 (   173 PWs)   bands (ev):

     9.2194   9.2194   9.7065   9.7065  13.0115  13.0115  14.1651  14.1651
    15.0934  15.0934

          k = 0.7778-0.1111 0.7778 (   176 PWs)   bands (ev):

     9.4977   9.4977  10.1054  10.1054  12.5325  12.5325  13.8348  13.8348
    15.1155  15.1155

          k = 0.6667-0.0000 0.6667 (   172 PWs)   bands (ev):

     9.9054   9.9054  10.6644  10.6644  11.7882  11.7882  13.3474  13.3474
    14.5807  14.5807

          k = 0.0000 0.8889 0.0000 (   178 PWs)   bands (ev):

     8.9256   8.9256   9.3686   9.3686  14.6453  14.6453  14.7532  14.7532
    15.7812  15.7812

          k = 0.8889 0.0000 0.8889 (   178 PWs)   bands (ev):

     9.0710   9.0710   9.4887   9.4887  13.9965  13.9965  14.5603  14.5603
    15.4901  15.4901

          k =-0.2222 0.4444 0.0000 (   166 PWs)   bands (ev):

     8.3056   8.3056  10.6435  10.6435  11.5714  11.5714  13.0918  13.0918
    13.2504  13.2504

          k =-0.3333 0.5556-0.1111 (   174 PWs)   bands (ev):

     9.3253   9.3253  10.8367  10.8367  11.2692  11.2692  12.9173  12.9173
    14.0611  14.0611

          k = 0.5556-0.3333 0.7778 (   171 PWs)   bands (ev):

     9.5096   9.5096  10.8896  10.8896  11.8703  11.8703  12.7850  12.7850
    14.7678  14.7678

          k =-0.2222 0.6667 0.0000 (   172 PWs)   bands (ev):

     9.4632   9.4632  10.0653  10.0653  11.7835  11.7835  13.9558  13.9558
    14.1942  14.1942

          k = 0.6667-0.2222 0.8889 (   172 PWs)   bands (ev):

     9.8048   9.8048  10.3540  10.3540  11.6408  11.6408  13.6546  13.6546
    14.8982  14.8982

          k = 0.5556-0.1111 0.7778 (   177 PWs)   bands (ev):

    10.1094  10.1094  10.5641  10.5641  11.5174  11.5174  13.3043  13.3043
    14.8216  14.8216

          k = 0.4444 0.0000 0.6667 (   175 PWs)   bands (ev):

    10.3099  10.3099  10.6445  10.6445  10.9606  10.9606  13.2999  13.2999
    14.2418  14.2418

          k = 0.7778-0.1111 1.0000 (   171 PWs)   bands (ev):

     9.3305   9.3305   9.6964   9.6964  13.0380  13.0380  14.3858  14.3858
    15.3015  15.3015

          k = 0.6667-0.0000 0.8889 (   176 PWs)   bands (ev):

     9.6910   9.6910  10.1578  10.1578  12.2631  12.2631  13.8171  13.8171
    15.2511  15.2511

          k = 0.5556-0.1111 1.0000 (   175 PWs)   bands (ev):

    10.0876  10.0876  10.6357  10.6357  11.3059  11.3059  13.5160  13.5160
    15.2161  15.2161

     highest occupied level (ev):    15.7812

!    total energy              =     -69.45083980 Ry
     estimated scf accuracy    <          1.9E-09 Ry

     The total energy is the sum of the following terms:
     one-electron contribution =      14.07246100 Ry
     hartree contribution      =       4.45115140 Ry
     xc contribution           =     -28.43078888 Ry
     ewald contribution        =     -59.54366332 Ry

     convergence has been achieved in   5 iterations

     negative rho (up, down):  2.801E-04 0.000E+00

     Forces acting on atoms (cartesian axes, Ry/au):

     atom    1 type  1   force =     0.00000000    0.00000000    0.00000000

     Total force =     0.000000     Total SCF correction =     0.000000


     Computing stress (Cartesian axis) and pressure


     negative rho (up, down):  2.801E-04 0.000E+00
          total   stress  (Ry/bohr**3)                   (kbar)     P=     -196.02
  -0.00133250  -0.00000000  -0.00000000         -196.02       -0.00       -0.00
  -0.00000000  -0.00133250   0.00000000           -0.00     -196.02        0.00
  -0.00000000   0.00000000  -0.00133250           -0.00        0.00     -196.02


     Writing all to output data dir ./platinum.save/ :
     XML data file, charge density, pseudopotentials, collected wavefunctions

     init_run     :      0.24s CPU      0.28s WALL (       1 calls)
     electrons    :      1.42s CPU      1.59s WALL (       1 calls)
     forces       :      0.04s CPU      0.04s WALL (       1 calls)
     stress       :      0.18s CPU      0.18s WALL (       1 calls)

     Called by init_run:
     wfcinit      :      0.06s CPU      0.08s WALL (       1 calls)
     potinit      :      0.01s CPU      0.01s WALL (       1 calls)
     hinit0       :      0.16s CPU      0.18s WALL (       1 calls)

     Called by electrons:
     c_bands      :      1.13s CPU      1.29s WALL (       6 calls)
     sum_band     :      0.22s CPU      0.24s WALL (       6 calls)
     v_of_rho     :      0.00s CPU      0.00s WALL (       6 calls)
     newd         :      0.07s CPU      0.08s WALL (       6 calls)
     mix_rho      :      0.00s CPU      0.00s WALL (       6 calls)

     Called by c_bands:
     init_us_2    :      0.02s CPU      0.02s WALL (     525 calls)
     cegterg      :      1.07s CPU      1.21s WALL (     210 calls)

     Called by *egterg:
     cdiaghg      :      0.07s CPU      0.08s WALL (     992 calls)
     h_psi        :      0.62s CPU      0.72s WALL (    1062 calls)
     s_psi        :      0.10s CPU      0.12s WALL (    1062 calls)
     g_psi        :      0.01s CPU      0.01s WALL (     817 calls)

     Called by h_psi:
     h_psi:calbec :      0.08s CPU      0.09s WALL (    1062 calls)
     vloc_psi     :      0.43s CPU      0.49s WALL (    1062 calls)
     add_vuspsi   :      0.10s CPU      0.12s WALL (    1062 calls)

     General routines
     calbec       :      0.12s CPU      0.13s WALL (    1447 calls)
     fft          :      0.01s CPU      0.03s WALL (      69 calls)
     ffts         :      0.00s CPU      0.00s WALL (      24 calls)
     fftw         :      0.32s CPU      0.37s WALL (   36212 calls)

     Parallel routines

     PWSCF        :      1.98s CPU      2.20s WALL


   This run was terminated on:  22: 2:14   4Nov2024            

=------------------------------------------------------------------------------=
   JOB DONE.
=------------------------------------------------------------------------------=
