
     Program PWSCF v.7.3.1 starts on  4Nov2024 at 22: 2:51 

     This program is part of the open-source Quantum ESPRESSO suite
     for quantum simulation of materials; please cite
         "P. Giannozzi et al., J. Phys.:Condens. Matter 21 395502 (2009);
         "P. Giannozzi et al., J. Phys.:Condens. Matter 29 465901 (2017);
         "P. Giannozzi et al., J. Chem. Phys. 152 154105 (2020);
          URL http://www.quantum-espresso.org", 
     in publications or presentations arising from this work. More details at
     http://www.quantum-espresso.org/quote

     Parallel version (MPI), running on     1 processors

     MPI processes distributed on     1 nodes
     11818 MiB available memory on the printing compute node when the environment starts

     Waiting for input...
     Reading input from standard input

     Current dimensions of program PWSCF are:
     Max number of different atomic species (ntypx) = 10
     Max number of k-points (npk) =  40000
     Max angular momentum in pseudopotentials (lmaxx) =  4

     Subspace diagonalization in iterative solution of the eigenvalue problem:
     a serial algorithm will be used


     G-vector sticks info
     --------------------
     sticks:   dense  smooth     PW     G-vecs:    dense   smooth      PW
     Sum         163     163     61                 1459     1459     331

     Using Slab Decomposition



     bravais-lattice index     =            2
     lattice parameter (alat)  =       7.9000  a.u.
     unit-cell volume          =     123.2598 (a.u.)^3
     number of atoms/cell      =            1
     number of atomic types    =            1
     number of electrons       =        10.00
     number of Kohn-Sham states=           10
     kinetic-energy cutoff     =      20.0000  Ry
     charge density cutoff     =      80.0000  Ry
     scf convergence threshold =      1.0E-08
     mixing beta               =       0.7000
     number of iterations used =            8  plain     mixing
     Exchange-correlation=  SLA  PZ   NOGX NOGC
                           (   1   1   0   0   0   0   0)
     Non magnetic calculation with spin-orbit


     celldm(1)=   7.900000  celldm(2)=   0.000000  celldm(3)=   0.000000
     celldm(4)=   0.000000  celldm(5)=   0.000000  celldm(6)=   0.000000

     crystal axes: (cart. coord. in units of alat)
               a(1) = (  -0.500000   0.000000   0.500000 )  
               a(2) = (   0.000000   0.500000   0.500000 )  
               a(3) = (  -0.500000   0.500000   0.000000 )  

     reciprocal axes: (cart. coord. in units 2 pi/alat)
               b(1) = ( -1.000000 -1.000000  1.000000 )  
               b(2) = (  1.000000  1.000000  1.000000 )  
               b(3) = ( -1.000000  1.000000 -1.000000 )  


     PseudoPot. # 1 for Pt read from file:
     /home/dashlander/Desktop/Sem7/CPD/Assignment_3/pseudo/Pt.rel-pz-n-rrkjus.UPF
     MD5 check sum: 4baafe8ec1942611396c7a5466f52249
     Pseudo is Ultrasoft + core correction, Zval = 10.0
     Generated by new atomic code, or converted to UPF format
     Using radial grid of 1277 points,  6 beta functions with: 
                l(1) =   2
                l(2) =   2
                l(3) =   2
                l(4) =   2
                l(5) =   1
                l(6) =   1
     Q(r) pseudized with 0 coefficients 


     atomic species   valence    mass     pseudopotential
     Pt               10.00   195.08400     Pt( 1.00)

     48 Sym. Ops., with inversion, found



   Cartesian axes

     site n.     atom                  positions (alat units)
         1        Pt     tau(   1) = (   0.0000000   0.0000000   0.0000000  )

     number of k points=    35
                       cart. coord. in units 2pi/alat
        k(    1) = (   0.0000000   0.0000000   0.0000000), wk =   0.0013717
        k(    2) = (  -0.1111111   0.1111111  -0.1111111), wk =   0.0109739
        k(    3) = (  -0.2222222   0.2222222  -0.2222222), wk =   0.0109739
        k(    4) = (  -0.3333333   0.3333333  -0.3333333), wk =   0.0109739
        k(    5) = (  -0.4444444   0.4444444  -0.4444444), wk =   0.0109739
        k(    6) = (   0.0000000   0.2222222   0.0000000), wk =   0.0082305
        k(    7) = (  -0.1111111   0.3333333  -0.1111111), wk =   0.0329218
        k(    8) = (  -0.2222222   0.4444444  -0.2222222), wk =   0.0329218
        k(    9) = (  -0.3333333   0.5555556  -0.3333333), wk =   0.0329218
        k(   10) = (   0.5555556  -0.3333333   0.5555556), wk =   0.0329218
        k(   11) = (   0.4444444  -0.2222222   0.4444444), wk =   0.0329218
        k(   12) = (   0.3333333  -0.1111111   0.3333333), wk =   0.0329218
        k(   13) = (   0.2222222  -0.0000000   0.2222222), wk =   0.0164609
        k(   14) = (   0.0000000   0.4444444   0.0000000), wk =   0.0082305
        k(   15) = (  -0.1111111   0.5555556  -0.1111111), wk =   0.0329218
        k(   16) = (  -0.2222222   0.6666667  -0.2222222), wk =   0.0329218
        k(   17) = (   0.6666667  -0.2222222   0.6666667), wk =   0.0329218
        k(   18) = (   0.5555556  -0.1111111   0.5555556), wk =   0.0329218
        k(   19) = (   0.4444444   0.0000000   0.4444444), wk =   0.0164609
        k(   20) = (   0.0000000   0.6666667   0.0000000), wk =   0.0082305
        k(   21) = (  -0.1111111   0.7777778  -0.1111111), wk =   0.0329218
        k(   22) = (   0.7777778  -0.1111111   0.7777778), wk =   0.0329218
        k(   23) = (   0.6666667  -0.0000000   0.6666667), wk =   0.0164609
        k(   24) = (   0.0000000   0.8888889   0.0000000), wk =   0.0082305
        k(   25) = (   0.8888889   0.0000000   0.8888889), wk =   0.0164609
        k(   26) = (  -0.2222222   0.4444444   0.0000000), wk =   0.0329218
        k(   27) = (  -0.3333333   0.5555556  -0.1111111), wk =   0.0658436
        k(   28) = (   0.5555556  -0.3333333   0.7777778), wk =   0.0658436
        k(   29) = (  -0.2222222   0.6666667   0.0000000), wk =   0.0329218
        k(   30) = (   0.6666667  -0.2222222   0.8888889), wk =   0.0658436
        k(   31) = (   0.5555556  -0.1111111   0.7777778), wk =   0.0658436
        k(   32) = (   0.4444444   0.0000000   0.6666667), wk =   0.0329218
        k(   33) = (   0.7777778  -0.1111111   1.0000000), wk =   0.0329218
        k(   34) = (   0.6666667  -0.0000000   0.8888889), wk =   0.0329218
        k(   35) = (   0.5555556  -0.1111111   1.0000000), wk =   0.0329218

     Dense  grid:     1459 G-vectors     FFT dimensions: (  15,  15,  15)

     Estimated max dynamical RAM per process >      13.95 MB

     Check: negative core charge=   -0.000059

     Initial potential from superposition of free atoms

     starting charge       9.9999, renormalised to      10.0000

     negative rho (up, down):  2.627E-04 0.000E+00
     Starting wfcs are   12 randomized atomic wfcs

     total cpu time spent up to now is        0.4 secs

     Self-consistent Calculation

     iteration #  1     ecut=    20.00 Ry     beta= 0.70
     Davidson diagonalization with overlap
     ethr =  1.00E-02,  avg # of iterations =  2.0

     Threshold (ethr) on eigenvalues was too large:
     Diagonalizing with lowered threshold

     Davidson diagonalization with overlap
     ethr =  5.06E-05,  avg # of iterations =  6.0

     negative rho (up, down):  3.408E-04 0.000E+00

     total cpu time spent up to now is        0.9 secs

     total energy              =     -69.43553774 Ry
     estimated scf accuracy    <       0.00160101 Ry

     iteration #  2     ecut=    20.00 Ry     beta= 0.70
     Davidson diagonalization with overlap
     ethr =  1.60E-05,  avg # of iterations =  2.3

     negative rho (up, down):  3.637E-04 0.000E+00

     total cpu time spent up to now is        1.2 secs

     total energy              =     -69.43586130 Ry
     estimated scf accuracy    <       0.00015634 Ry

     iteration #  3     ecut=    20.00 Ry     beta= 0.70
     Davidson diagonalization with overlap
     ethr =  1.56E-06,  avg # of iterations =  2.9

     negative rho (up, down):  3.778E-04 0.000E+00

     total cpu time spent up to now is        1.4 secs

     total energy              =     -69.43591219 Ry
     estimated scf accuracy    <       0.00000867 Ry

     iteration #  4     ecut=    20.00 Ry     beta= 0.70
     Davidson diagonalization with overlap
     ethr =  8.67E-08,  avg # of iterations =  5.4

     negative rho (up, down):  3.776E-04 0.000E+00

     total cpu time spent up to now is        1.7 secs

     total energy              =     -69.43591894 Ry
     estimated scf accuracy    <       0.00000036 Ry

     iteration #  5     ecut=    20.00 Ry     beta= 0.70
     Davidson diagonalization with overlap
     ethr =  3.61E-09,  avg # of iterations =  6.2

     negative rho (up, down):  3.777E-04 0.000E+00

     total cpu time spent up to now is        2.0 secs

     total energy              =     -69.43591934 Ry
     estimated scf accuracy    <       0.00000001 Ry

     iteration #  6     ecut=    20.00 Ry     beta= 0.70
     Davidson diagonalization with overlap
     ethr =  1.19E-10,  avg # of iterations =  5.2

     negative rho (up, down):  3.777E-04 0.000E+00

     total cpu time spent up to now is        2.3 secs

     End of self-consistent calculation

          k = 0.0000 0.0000 0.0000 (   169 PWs)   bands (ev):

     4.8388   4.8388   9.9455   9.9455   9.9455   9.9455  10.9803  10.9803
    12.2294  12.2294

          k =-0.1111 0.1111-0.1111 (   172 PWs)   bands (ev):

     5.2441   5.2441   9.9296   9.9296  10.0115  10.0115  11.0593  11.0593
    12.1037  12.1037

          k =-0.2222 0.2222-0.2222 (   178 PWs)   bands (ev):

     6.3076   6.3076   9.9114   9.9114  10.0640  10.0640  11.2745  11.2745
    11.9970  11.9970

          k =-0.3333 0.3333-0.3333 (   183 PWs)   bands (ev):

     7.3058   7.3058   9.9591   9.9591  10.6224  10.6224  11.1121  11.1121
    12.5256  12.5256

          k =-0.4444 0.4444-0.4444 (   180 PWs)   bands (ev):

     7.5632   7.5632   9.8353   9.8353  10.8671  10.8671  12.5410  12.5410
    13.0966  13.0966

          k = 0.0000 0.2222 0.0000 (   173 PWs)   bands (ev):

     5.3809   5.3809   9.8182   9.8182  10.1241  10.1241  11.1036  11.1036
    11.9877  11.9877

          k =-0.1111 0.3333-0.1111 (   178 PWs)   bands (ev):

     6.2465   6.2465   9.6527   9.6527  10.2262  10.2262  11.3620  11.3620
    11.8444  11.8444

          k =-0.2222 0.4444-0.2222 (   184 PWs)   bands (ev):

     7.3797   7.3797   9.7879   9.7879  10.1280  10.1280  11.2736  11.2736
    12.4339  12.4339

          k =-0.3333 0.5556-0.3333 (   186 PWs)   bands (ev):

     7.8358   7.8358   9.8514   9.8514  10.7885  10.7885  11.2604  11.2604
    13.2176  13.2176

          k = 0.5556-0.3333 0.5556 (   182 PWs)   bands (ev):

     7.8797   7.8797   9.7993   9.7993  10.8499  10.8499  11.7853  11.7853
    13.1966  13.1966

          k = 0.4444-0.2222 0.4444 (   189 PWs)   bands (ev):

     7.7918   7.7918   9.8958   9.8958  10.6935  10.6935  11.0774  11.0774
    12.5966  12.5966

          k = 0.3333-0.1111 0.3333 (   185 PWs)   bands (ev):

     7.0445   7.0445   9.7449   9.7449  10.1542  10.1542  11.3353  11.3353
    11.8967  11.8967

          k = 0.2222-0.0000 0.2222 (   178 PWs)   bands (ev):

     5.8851   5.8851   9.7992   9.7992  10.1321  10.1321  11.2385  11.2385
    11.8706  11.8706

          k = 0.0000 0.4444 0.0000 (   178 PWs)   bands (ev):

     6.8167   6.8167   9.3095   9.3095  10.4337  10.4337  11.6865  11.6865
    11.8032  11.8032

          k =-0.1111 0.5556-0.1111 (   186 PWs)   bands (ev):

     7.7426   7.7426   9.1008   9.1008  10.3873  10.3873  11.8352  11.8352
    12.4456  12.4456

          k =-0.2222 0.6667-0.2222 (   188 PWs)   bands (ev):

     8.3173   8.3173   9.3803   9.3803  10.2905  10.2905  11.6752  11.6752
    13.2971  13.2971

          k = 0.6667-0.2222 0.6667 (   182 PWs)   bands (ev):

     8.4927   8.4927   9.5609   9.5609  10.5974  10.5974  11.5214  11.5214
    13.2467  13.2467

          k = 0.5556-0.1111 0.5556 (   182 PWs)   bands (ev):

     8.6382   8.6382   9.6537   9.6537  10.3784  10.3784  11.3452  11.3452
    12.6391  12.6391

          k = 0.4444 0.0000 0.4444 (   184 PWs)   bands (ev):

     8.1961   8.1961   9.5701   9.5701  10.0873  10.0873  11.3802  11.3802
    11.9863  11.9863

          k = 0.0000 0.6667 0.0000 (   194 PWs)   bands (ev):

     7.9568   7.9568   8.6921   8.6921  11.3238  11.3238  12.5007  12.5007
    12.5842  12.5842

          k =-0.1111 0.7778-0.1111 (   187 PWs)   bands (ev):

     8.1643   8.1643   8.6069   8.6069  11.5608  11.5608  12.5799  12.5799
    13.4010  13.4010

          k = 0.7778-0.1111 0.7778 (   188 PWs)   bands (ev):

     8.4200   8.4200   8.9651   8.9651  11.1530  11.1530  12.2912  12.2912
    13.4259  13.4259

          k = 0.6667-0.0000 0.6667 (   186 PWs)   bands (ev):

     8.7739   8.7739   9.4525   9.4525  10.5115  10.5115  11.8585  11.8585
    12.9652  12.9652

          k = 0.0000 0.8889 0.0000 (   190 PWs)   bands (ev):

     7.9111   7.9111   8.3072   8.3072  12.9602  12.9602  13.0548  13.0548
    14.0472  14.0472

          k = 0.8889 0.0000 0.8889 (   192 PWs)   bands (ev):

     8.0453   8.0453   8.4136   8.4136  12.4406  12.4406  12.8989  12.8989
    13.7846  13.7846

          k =-0.2222 0.4444 0.0000 (   184 PWs)   bands (ev):

     7.2223   7.2223   9.4258   9.4258  10.2158  10.2158  11.6739  11.6739
    11.7903  11.7903

          k =-0.3333 0.5556-0.1111 (   184 PWs)   bands (ev):

     8.2049   8.2049   9.5947   9.5947   9.9946   9.9946  11.5087  11.5087
    12.5010  12.5010

          k = 0.5556-0.3333 0.7778 (   188 PWs)   bands (ev):

     8.3978   8.3978   9.6419   9.6419  10.5611  10.5611  11.4102  11.4102
    13.1087  13.1087

          k =-0.2222 0.6667 0.0000 (   187 PWs)   bands (ev):

     8.3582   8.3582   8.9233   8.9233  10.4506  10.4506  12.4019  12.4019
    12.6184  12.6184

          k = 0.6667-0.2222 0.8889 (   190 PWs)   bands (ev):

     8.6853   8.6853   9.1841   9.1841  10.3485  10.3485  12.1501  12.1501
    13.2250  13.2250

          k = 0.5556-0.1111 0.7778 (   187 PWs)   bands (ev):

     8.9499   8.9499   9.3710   9.3710  10.2559  10.2559  11.8471  11.8471
    13.1617  13.1617

          k = 0.4444 0.0000 0.6667 (   186 PWs)   bands (ev):

     9.1057   9.1057   9.4195   9.4195   9.7787   9.7787  11.8355  11.8355
    12.6629  12.6629

          k = 0.7778-0.1111 1.0000 (   192 PWs)   bands (ev):

     8.2766   8.2766   8.5969   8.5969  11.5967  11.5967  12.7645  12.7645
    13.5964  13.5964

          k = 0.6667-0.0000 0.8889 (   193 PWs)   bands (ev):

     8.5992   8.5992   9.0079   9.0079  10.9152  10.9152  12.2841  12.2841
    13.5404  13.5404

          k = 0.5556-0.1111 1.0000 (   191 PWs)   bands (ev):

     8.9532   8.9532   9.4163   9.4163  10.0737  10.0737  12.0343  12.0343
    13.5005  13.5005

     highest occupied level (ev):    14.0472

!    total energy              =     -69.43591935 Ry
     estimated scf accuracy    <          2.1E-11 Ry

     The total energy is the sum of the following terms:
     one-electron contribution =      12.02138106 Ry
     hartree contribution      =       4.94059620 Ry
     xc contribution           =     -28.36166780 Ry
     ewald contribution        =     -58.03622882 Ry

     convergence has been achieved in   6 iterations

     negative rho (up, down):  3.777E-04 0.000E+00

     Forces acting on atoms (cartesian axes, Ry/au):

     atom    1 type  1   force =     0.00000000    0.00000000    0.00000000

     Total force =     0.000000     Total SCF correction =     0.000000


     Computing stress (Cartesian axis) and pressure


     negative rho (up, down):  3.777E-04 0.000E+00
          total   stress  (Ry/bohr**3)                   (kbar)     P=     -289.83
  -0.00197020  -0.00000000  -0.00000000         -289.83       -0.00       -0.00
  -0.00000000  -0.00197020   0.00000000           -0.00     -289.83        0.00
  -0.00000000   0.00000000  -0.00197020           -0.00        0.00     -289.83


     Writing all to output data dir ./platinum.save/ :
     XML data file, charge density, pseudopotentials, collected wavefunctions

     init_run     :      0.27s CPU      0.29s WALL (       1 calls)
     electrons    :      1.72s CPU      1.94s WALL (       1 calls)
     forces       :      0.04s CPU      0.04s WALL (       1 calls)
     stress       :      0.19s CPU      0.19s WALL (       1 calls)

     Called by init_run:
     wfcinit      :      0.07s CPU      0.08s WALL (       1 calls)
     potinit      :      0.01s CPU      0.01s WALL (       1 calls)
     hinit0       :      0.17s CPU      0.18s WALL (       1 calls)

     Called by electrons:
     c_bands      :      1.38s CPU      1.57s WALL (       7 calls)
     sum_band     :      0.26s CPU      0.29s WALL (       7 calls)
     v_of_rho     :      0.00s CPU      0.00s WALL (       7 calls)
     newd         :      0.09s CPU      0.09s WALL (       7 calls)
     mix_rho      :      0.00s CPU      0.00s WALL (       7 calls)

     Called by c_bands:
     init_us_2    :      0.02s CPU      0.03s WALL (     595 calls)
     cegterg      :      1.29s CPU      1.47s WALL (     245 calls)

     Called by *egterg:
     cdiaghg      :      0.09s CPU      0.10s WALL (    1262 calls)
     h_psi        :      0.74s CPU      0.84s WALL (    1332 calls)
     s_psi        :      0.13s CPU      0.14s WALL (    1332 calls)
     g_psi        :      0.01s CPU      0.01s WALL (    1052 calls)

     Called by h_psi:
     h_psi:calbec :      0.10s CPU      0.12s WALL (    1332 calls)
     vloc_psi     :      0.49s CPU      0.56s WALL (    1332 calls)
     add_vuspsi   :      0.12s CPU      0.14s WALL (    1332 calls)

     General routines
     calbec       :      0.14s CPU      0.16s WALL (    1752 calls)
     fft          :      0.03s CPU      0.03s WALL (      79 calls)
     ffts         :      0.00s CPU      0.00s WALL (      28 calls)
     fftw         :      0.37s CPU      0.42s WALL (   41688 calls)

     Parallel routines

     PWSCF        :      2.32s CPU      2.56s WALL


   This run was terminated on:  22: 2:53   4Nov2024            

=------------------------------------------------------------------------------=
   JOB DONE.
=------------------------------------------------------------------------------=
