
     Program PWSCF v.7.3.1 starts on  4Nov2024 at 22: 1:54 

     This program is part of the open-source Quantum ESPRESSO suite
     for quantum simulation of materials; please cite
         "P. Giannozzi et al., J. Phys.:Condens. Matter 21 395502 (2009);
         "P. Giannozzi et al., J. Phys.:Condens. Matter 29 465901 (2017);
         "P. Giannozzi et al., J. Chem. Phys. 152 154105 (2020);
          URL http://www.quantum-espresso.org", 
     in publications or presentations arising from this work. More details at
     http://www.quantum-espresso.org/quote

     Parallel version (MPI), running on     1 processors

     MPI processes distributed on     1 nodes
     11857 MiB available memory on the printing compute node when the environment starts

     Waiting for input...
     Reading input from standard input

     Current dimensions of program PWSCF are:
     Max number of different atomic species (ntypx) = 10
     Max number of k-points (npk) =  40000
     Max angular momentum in pseudopotentials (lmaxx) =  4

     Subspace diagonalization in iterative solution of the eigenvalue problem:
     a serial algorithm will be used


     G-vector sticks info
     --------------------
     sticks:   dense  smooth     PW     G-vecs:    dense   smooth      PW
     Sum         163     163     61                 1363     1363     331

     Using Slab Decomposition



     bravais-lattice index     =            2
     lattice parameter (alat)  =       7.6200  a.u.
     unit-cell volume          =     110.6127 (a.u.)^3
     number of atoms/cell      =            1
     number of atomic types    =            1
     number of electrons       =        10.00
     number of Kohn-Sham states=           10
     kinetic-energy cutoff     =      20.0000  Ry
     charge density cutoff     =      80.0000  Ry
     scf convergence threshold =      1.0E-08
     mixing beta               =       0.7000
     number of iterations used =            8  plain     mixing
     Exchange-correlation=  SLA  PZ   NOGX NOGC
                           (   1   1   0   0   0   0   0)
     Non magnetic calculation with spin-orbit


     celldm(1)=   7.620000  celldm(2)=   0.000000  celldm(3)=   0.000000
     celldm(4)=   0.000000  celldm(5)=   0.000000  celldm(6)=   0.000000

     crystal axes: (cart. coord. in units of alat)
               a(1) = (  -0.500000   0.000000   0.500000 )  
               a(2) = (   0.000000   0.500000   0.500000 )  
               a(3) = (  -0.500000   0.500000   0.000000 )  

     reciprocal axes: (cart. coord. in units 2 pi/alat)
               b(1) = ( -1.000000 -1.000000  1.000000 )  
               b(2) = (  1.000000  1.000000  1.000000 )  
               b(3) = ( -1.000000  1.000000 -1.000000 )  


     PseudoPot. # 1 for Pt read from file:
     /home/dashlander/Desktop/Sem7/CPD/Assignment_3/pseudo/Pt.rel-pz-n-rrkjus.UPF
     MD5 check sum: 4baafe8ec1942611396c7a5466f52249
     Pseudo is Ultrasoft + core correction, Zval = 10.0
     Generated by new atomic code, or converted to UPF format
     Using radial grid of 1277 points,  6 beta functions with: 
                l(1) =   2
                l(2) =   2
                l(3) =   2
                l(4) =   2
                l(5) =   1
                l(6) =   1
     Q(r) pseudized with 0 coefficients 


     atomic species   valence    mass     pseudopotential
     Pt               10.00   195.08400     Pt( 1.00)

     48 Sym. Ops., with inversion, found



   Cartesian axes

     site n.     atom                  positions (alat units)
         1        Pt     tau(   1) = (   0.0000000   0.0000000   0.0000000  )

     number of k points=    35
                       cart. coord. in units 2pi/alat
        k(    1) = (   0.0000000   0.0000000   0.0000000), wk =   0.0013717
        k(    2) = (  -0.1111111   0.1111111  -0.1111111), wk =   0.0109739
        k(    3) = (  -0.2222222   0.2222222  -0.2222222), wk =   0.0109739
        k(    4) = (  -0.3333333   0.3333333  -0.3333333), wk =   0.0109739
        k(    5) = (  -0.4444444   0.4444444  -0.4444444), wk =   0.0109739
        k(    6) = (   0.0000000   0.2222222   0.0000000), wk =   0.0082305
        k(    7) = (  -0.1111111   0.3333333  -0.1111111), wk =   0.0329218
        k(    8) = (  -0.2222222   0.4444444  -0.2222222), wk =   0.0329218
        k(    9) = (  -0.3333333   0.5555556  -0.3333333), wk =   0.0329218
        k(   10) = (   0.5555556  -0.3333333   0.5555556), wk =   0.0329218
        k(   11) = (   0.4444444  -0.2222222   0.4444444), wk =   0.0329218
        k(   12) = (   0.3333333  -0.1111111   0.3333333), wk =   0.0329218
        k(   13) = (   0.2222222  -0.0000000   0.2222222), wk =   0.0164609
        k(   14) = (   0.0000000   0.4444444   0.0000000), wk =   0.0082305
        k(   15) = (  -0.1111111   0.5555556  -0.1111111), wk =   0.0329218
        k(   16) = (  -0.2222222   0.6666667  -0.2222222), wk =   0.0329218
        k(   17) = (   0.6666667  -0.2222222   0.6666667), wk =   0.0329218
        k(   18) = (   0.5555556  -0.1111111   0.5555556), wk =   0.0329218
        k(   19) = (   0.4444444   0.0000000   0.4444444), wk =   0.0164609
        k(   20) = (   0.0000000   0.6666667   0.0000000), wk =   0.0082305
        k(   21) = (  -0.1111111   0.7777778  -0.1111111), wk =   0.0329218
        k(   22) = (   0.7777778  -0.1111111   0.7777778), wk =   0.0329218
        k(   23) = (   0.6666667  -0.0000000   0.6666667), wk =   0.0164609
        k(   24) = (   0.0000000   0.8888889   0.0000000), wk =   0.0082305
        k(   25) = (   0.8888889   0.0000000   0.8888889), wk =   0.0164609
        k(   26) = (  -0.2222222   0.4444444   0.0000000), wk =   0.0329218
        k(   27) = (  -0.3333333   0.5555556  -0.1111111), wk =   0.0658436
        k(   28) = (   0.5555556  -0.3333333   0.7777778), wk =   0.0658436
        k(   29) = (  -0.2222222   0.6666667   0.0000000), wk =   0.0329218
        k(   30) = (   0.6666667  -0.2222222   0.8888889), wk =   0.0658436
        k(   31) = (   0.5555556  -0.1111111   0.7777778), wk =   0.0658436
        k(   32) = (   0.4444444   0.0000000   0.6666667), wk =   0.0329218
        k(   33) = (   0.7777778  -0.1111111   1.0000000), wk =   0.0329218
        k(   34) = (   0.6666667  -0.0000000   0.8888889), wk =   0.0329218
        k(   35) = (   0.5555556  -0.1111111   1.0000000), wk =   0.0329218

     Dense  grid:     1363 G-vectors     FFT dimensions: (  15,  15,  15)

     Estimated max dynamical RAM per process >      13.04 MB

     Check: negative core charge=   -0.000052

     Initial potential from superposition of free atoms

     starting charge       9.9999, renormalised to      10.0000

     negative rho (up, down):  1.542E-04 0.000E+00
     Starting wfcs are   12 randomized atomic wfcs

     total cpu time spent up to now is        0.4 secs

     Self-consistent Calculation

     iteration #  1     ecut=    20.00 Ry     beta= 0.70
     Davidson diagonalization with overlap
     ethr =  1.00E-02,  avg # of iterations =  2.0

     Threshold (ethr) on eigenvalues was too large:
     Diagonalizing with lowered threshold

     Davidson diagonalization with overlap
     ethr =  3.00E-05,  avg # of iterations =  6.9

     negative rho (up, down):  2.367E-04 0.000E+00

     total cpu time spent up to now is        1.0 secs

     total energy              =     -69.45385338 Ry
     estimated scf accuracy    <       0.00313359 Ry

     iteration #  2     ecut=    20.00 Ry     beta= 0.70
     Davidson diagonalization with overlap
     ethr =  3.13E-05,  avg # of iterations =  2.3

     negative rho (up, down):  2.593E-04 0.000E+00

     total cpu time spent up to now is        1.2 secs

     total energy              =     -69.45464037 Ry
     estimated scf accuracy    <       0.00040054 Ry

     iteration #  3     ecut=    20.00 Ry     beta= 0.70
     Davidson diagonalization with overlap
     ethr =  4.01E-06,  avg # of iterations =  2.1

     negative rho (up, down):  2.764E-04 0.000E+00

     total cpu time spent up to now is        1.4 secs

     total energy              =     -69.45470662 Ry
     estimated scf accuracy    <       0.00001239 Ry

     iteration #  4     ecut=    20.00 Ry     beta= 0.70
     Davidson diagonalization with overlap
     c_bands:  1 eigenvalues not converged
     ethr =  1.24E-07,  avg # of iterations =  7.2

     negative rho (up, down):  2.765E-04 0.000E+00

     total cpu time spent up to now is        1.7 secs

     total energy              =     -69.45478958 Ry
     estimated scf accuracy    <       0.00000111 Ry

     iteration #  5     ecut=    20.00 Ry     beta= 0.70
     Davidson diagonalization with overlap
     ethr =  1.11E-08,  avg # of iterations =  4.2

     negative rho (up, down):  2.771E-04 0.000E+00

     total cpu time spent up to now is        1.9 secs

     total energy              =     -69.45478921 Ry
     estimated scf accuracy    <       0.00000143 Ry

     iteration #  6     ecut=    20.00 Ry     beta= 0.70
     Davidson diagonalization with overlap
     ethr =  1.11E-08,  avg # of iterations =  3.0

     negative rho (up, down):  2.770E-04 0.000E+00

     total cpu time spent up to now is        2.2 secs

     total energy              =     -69.45478974 Ry
     estimated scf accuracy    <       0.00000116 Ry

     iteration #  7     ecut=    20.00 Ry     beta= 0.70
     Davidson diagonalization with overlap
     ethr =  1.11E-08,  avg # of iterations =  1.1

     negative rho (up, down):  2.769E-04 0.000E+00

     total cpu time spent up to now is        2.3 secs

     total energy              =     -69.45478954 Ry
     estimated scf accuracy    <       0.00000034 Ry

     iteration #  8     ecut=    20.00 Ry     beta= 0.70
     Davidson diagonalization with overlap
     ethr =  3.40E-09,  avg # of iterations =  2.9

     negative rho (up, down):  2.769E-04 0.000E+00

     total cpu time spent up to now is        2.6 secs

     total energy              =     -69.45478970 Ry
     estimated scf accuracy    <       0.00000007 Ry

     iteration #  9     ecut=    20.00 Ry     beta= 0.70
     Davidson diagonalization with overlap
     ethr =  7.32E-10,  avg # of iterations =  1.7

     negative rho (up, down):  2.769E-04 0.000E+00

     total cpu time spent up to now is        2.7 secs

     total energy              =     -69.45478975 Ry
     estimated scf accuracy    <       0.00000003 Ry

     iteration # 10     ecut=    20.00 Ry     beta= 0.70
     Davidson diagonalization with overlap
     ethr =  2.88E-10,  avg # of iterations =  3.4

     negative rho (up, down):  2.770E-04 0.000E+00

     total cpu time spent up to now is        3.0 secs

     total energy              =     -69.45478966 Ry
     estimated scf accuracy    <       0.00000019 Ry

     iteration # 11     ecut=    20.00 Ry     beta= 0.70
     Davidson diagonalization with overlap
     ethr =  2.88E-10,  avg # of iterations =  3.5

     negative rho (up, down):  2.770E-04 0.000E+00

     total cpu time spent up to now is        3.2 secs

     End of self-consistent calculation

          k = 0.0000 0.0000 0.0000 (   169 PWs)   bands (ev):

     6.1711   6.1711  11.8521  11.8521  11.8521  11.8521  12.8617  12.8617
    14.3927  14.3927

          k =-0.1111 0.1111-0.1111 (   169 PWs)   bands (ev):

     6.6187   6.6187  11.8178  11.8178  11.9391  11.9391  12.9570  12.9570
    14.2459  14.2459

          k =-0.2222 0.2222-0.2222 (   168 PWs)   bands (ev):

     7.7758   7.7758  11.7554  11.7554  12.0085  12.0085  13.2071  13.2071
    14.1456  14.1456

          k =-0.3333 0.3333-0.3333 (   165 PWs)   bands (ev):

     8.8063   8.8063  11.8721  11.8721  12.5466  12.5466  13.0082  13.0082
    14.7901  14.7901

          k =-0.4444 0.4444-0.4444 (   168 PWs)   bands (ev):

     9.0390   9.0390  11.7150  11.7150  12.7360  12.7360  14.6277  14.6277
    15.4079  15.4079

          k = 0.0000 0.2222 0.0000 (   169 PWs)   bands (ev):

     6.7700   6.7700  11.6788  11.6788  12.0756  12.0756  13.0184  13.0184
    14.0779  14.0779

          k =-0.1111 0.3333-0.1111 (   166 PWs)   bands (ev):

     7.7166   7.7166  11.4521  11.4521  12.1980  12.1980  13.3287  13.3287
    13.9191  13.9191

          k =-0.2222 0.4444-0.2222 (   162 PWs)   bands (ev):

     8.9172   8.9172  11.6065  11.6065  12.0292  12.0292  13.2120  13.2120
    14.6748  14.6748

          k =-0.3333 0.5556-0.3333 (   167 PWs)   bands (ev):

     9.3567   9.3567  11.7195  11.7195  12.6863  12.6863  13.1814  13.1814
    15.6294  15.6294

          k = 0.5556-0.3333 0.5556 (   166 PWs)   bands (ev):

     9.3932   9.3932  11.6544  11.6544  12.7301  12.7301  13.7850  13.7850
    15.5860  15.5860

          k = 0.4444-0.2222 0.4444 (   165 PWs)   bands (ev):

     9.3271   9.3271  11.7846  11.7846  12.5931  12.5931  12.9732  12.9732
    14.8504  14.8504

          k = 0.3333-0.1111 0.3333 (   161 PWs)   bands (ev):

     8.5747   8.5747  11.5525  11.5525  12.0920  12.0920  13.2832  13.2832
    13.9980  13.9980

          k = 0.2222-0.0000 0.2222 (   164 PWs)   bands (ev):

     7.3236   7.3236  11.6385  11.6385  12.0874  12.0874  13.1764  13.1764
    13.9539  13.9539

          k = 0.0000 0.4444 0.0000 (   165 PWs)   bands (ev):

     8.3304   8.3304  11.0264  11.0264  12.4440  12.4440  13.7569  13.7569
    13.8330  13.8330

          k =-0.1111 0.5556-0.1111 (   167 PWs)   bands (ev):

     9.3062   9.3062  10.7674  10.7674  12.3305  12.3305  13.9167  13.9167
    14.6906  14.6906

          k =-0.2222 0.6667-0.2222 (   167 PWs)   bands (ev):

     9.8878   9.8878  11.0885  11.0885  12.1646  12.1646  13.7221  13.7221
    15.7338  15.7338

          k = 0.6667-0.2222 0.6667 (   174 PWs)   bands (ev):

    10.0812  10.0812  11.3088  11.3088  12.4754  12.4754  13.5240  13.5240
    15.6494  15.6494

          k = 0.5556-0.1111 0.5556 (   168 PWs)   bands (ev):

    10.2707  10.2707  11.4487  11.4487  12.1840  12.1840  13.3455  13.3455
    14.8902  14.8902

          k = 0.4444 0.0000 0.4444 (   166 PWs)   bands (ev):

     9.8272   9.8272  11.3370  11.3370  11.9402  11.9402  13.3848  13.3848
    14.0804  14.0804

          k = 0.0000 0.6667 0.0000 (   170 PWs)   bands (ev):

     9.4776   9.4776  10.2773  10.2773  13.4115  13.4115  14.7937  14.7937
    14.8029  14.8029

          k =-0.1111 0.7778-0.1111 (   168 PWs)   bands (ev):

     9.6694   9.6694  10.1747  10.1747  13.6351  13.6351  14.8478  14.8478
    15.8252  15.8252

          k = 0.7778-0.1111 0.7778 (   175 PWs)   bands (ev):

     9.9563   9.9563  10.5919  10.5919  13.1260  13.1260  14.4991  14.4991
    15.8456  15.8456

          k = 0.6667-0.0000 0.6667 (   172 PWs)   bands (ev):

    10.3873  10.3873  11.1816  11.1816  12.3383  12.3383  13.9871  13.9871
    15.2770  15.2770

          k = 0.0000 0.8889 0.0000 (   162 PWs)   bands (ev):

     9.3580   9.3580   9.8201   9.8201  15.3758  15.3758  15.4883  15.4883
    16.5317  16.5317

          k = 0.8889 0.0000 0.8889 (   170 PWs)   bands (ev):

     9.5071   9.5071   9.9462   9.9462  14.6645  14.6645  15.2775  15.2775
    16.2303  16.2303

          k =-0.2222 0.4444 0.0000 (   164 PWs)   bands (ev):

     8.7740   8.7740  11.1627  11.1627  12.1513  12.1513  13.7012  13.7012
    13.8779  13.8779

          k =-0.3333 0.5556-0.1111 (   164 PWs)   bands (ev):

     9.8077   9.8077  11.3673  11.3673  11.8150  11.8150  13.5232  13.5232
    14.7341  14.7341

          k = 0.5556-0.3333 0.7778 (   167 PWs)   bands (ev):

     9.9855   9.9855  11.4207  11.4207  12.4338  12.4338  13.3757  13.3757
    15.4830  15.4830

          k =-0.2222 0.6667 0.0000 (   172 PWs)   bands (ev):

     9.9365   9.9365  10.5519  10.5519  12.3556  12.3556  14.6245  14.6245
    14.8728  14.8728

          k = 0.6667-0.2222 0.8889 (   168 PWs)   bands (ev):

    10.2823  10.2823  10.8529  10.8529  12.1966  12.1966  14.3021  14.3021
    15.6197  15.6197

          k = 0.5556-0.1111 0.7778 (   171 PWs)   bands (ev):

    10.6040  10.6040  11.0728  11.0728  12.0606  12.0606  13.9313  13.9313
    15.5392  15.5392

          k = 0.4444 0.0000 0.6667 (   167 PWs)   bands (ev):

    10.8268  10.8268  11.1674  11.1674  11.4669  11.4669  13.9297  13.9297
    14.9237  14.9237

          k = 0.7778-0.1111 1.0000 (   171 PWs)   bands (ev):

     9.7790   9.7790  10.1647  10.1647  13.6574  13.6574  15.0827  15.0827
    16.0370  16.0370

          k = 0.6667-0.0000 0.8889 (   167 PWs)   bands (ev):

    10.1557  10.1557  10.6486  10.6486  12.8430  12.8430  14.4775  14.4775
    15.9925  15.9925

          k = 0.5556-0.1111 1.0000 (   163 PWs)   bands (ev):

    10.5705  10.5705  11.1559  11.1559  11.8366  11.8366  14.1532  14.1532
    15.9572  15.9572

     highest occupied level (ev):    16.5317

!    total energy              =     -69.45478970 Ry
     estimated scf accuracy    <          1.1E-09 Ry

     The total energy is the sum of the following terms:
     one-electron contribution =      14.91591178 Ry
     hartree contribution      =       4.26092559 Ry
     xc contribution           =     -28.46283342 Ry
     ewald contribution        =     -60.16879364 Ry

     convergence has been achieved in  11 iterations

     negative rho (up, down):  2.770E-04 0.000E+00

     Forces acting on atoms (cartesian axes, Ry/au):

     atom    1 type  1   force =     0.00000000    0.00000000    0.00000000

     Total force =     0.000000     Total SCF correction =     0.000000


     Computing stress (Cartesian axis) and pressure


     negative rho (up, down):  2.770E-04 0.000E+00
          total   stress  (Ry/bohr**3)                   (kbar)     P=     -138.00
  -0.00093808  -0.00000000   0.00000000         -138.00       -0.00        0.00
  -0.00000000  -0.00093808   0.00000000           -0.00     -138.00        0.00
   0.00000000   0.00000000  -0.00093808            0.00        0.00     -138.00


     Writing all to output data dir ./platinum.save/ :
     XML data file, charge density, pseudopotentials, collected wavefunctions

     init_run     :      0.24s CPU      0.28s WALL (       1 calls)
     electrons    :      2.50s CPU      2.86s WALL (       1 calls)
     forces       :      0.04s CPU      0.04s WALL (       1 calls)
     stress       :      0.17s CPU      0.17s WALL (       1 calls)

     Called by init_run:
     wfcinit      :      0.05s CPU      0.08s WALL (       1 calls)
     potinit      :      0.01s CPU      0.01s WALL (       1 calls)
     hinit0       :      0.16s CPU      0.18s WALL (       1 calls)

     Called by electrons:
     c_bands      :      1.92s CPU      2.24s WALL (      12 calls)
     sum_band     :      0.43s CPU      0.47s WALL (      12 calls)
     v_of_rho     :      0.00s CPU      0.00s WALL (      12 calls)
     newd         :      0.15s CPU      0.15s WALL (      12 calls)
     mix_rho      :      0.00s CPU      0.00s WALL (      12 calls)

     Called by c_bands:
     init_us_2    :      0.03s CPU      0.04s WALL (     945 calls)
     cegterg      :      1.79s CPU      2.09s WALL (     420 calls)

     Called by *egterg:
     cdiaghg      :      0.11s CPU      0.13s WALL (    1794 calls)
     h_psi        :      1.04s CPU      1.23s WALL (    1864 calls)
     s_psi        :      0.17s CPU      0.20s WALL (    1864 calls)
     g_psi        :      0.02s CPU      0.02s WALL (    1409 calls)

     Called by h_psi:
     h_psi:calbec :      0.14s CPU      0.16s WALL (    1864 calls)
     vloc_psi     :      0.71s CPU      0.84s WALL (    1864 calls)
     add_vuspsi   :      0.17s CPU      0.20s WALL (    1864 calls)

     General routines
     calbec       :      0.19s CPU      0.22s WALL (    2459 calls)
     fft          :      0.02s CPU      0.03s WALL (     129 calls)
     ffts         :      0.00s CPU      0.00s WALL (      48 calls)
     fftw         :      0.54s CPU      0.64s WALL (   63996 calls)

     Parallel routines

     PWSCF        :      3.04s CPU      3.46s WALL


   This run was terminated on:  22: 1:58   4Nov2024            

=------------------------------------------------------------------------------=
   JOB DONE.
=------------------------------------------------------------------------------=
