
     Program PWSCF v.7.3.1 starts on  4Nov2024 at 13:47:10 

     This program is part of the open-source Quantum ESPRESSO suite
     for quantum simulation of materials; please cite
         "P. Giannozzi et al., J. Phys.:Condens. Matter 21 395502 (2009);
         "P. Giannozzi et al., J. Phys.:Condens. Matter 29 465901 (2017);
         "P. Giannozzi et al., J. Chem. Phys. 152 154105 (2020);
          URL http://www.quantum-espresso.org", 
     in publications or presentations arising from this work. More details at
     http://www.quantum-espresso.org/quote

     Parallel version (MPI), running on     1 processors

     MPI processes distributed on     1 nodes
     14477 MiB available memory on the printing compute node when the environment starts

     Waiting for input...
     Reading input from standard input

     Current dimensions of program PWSCF are:
     Max number of different atomic species (ntypx) = 10
     Max number of k-points (npk) =  40000
     Max angular momentum in pseudopotentials (lmaxx) =  4

     Subspace diagonalization in iterative solution of the eigenvalue problem:
     a serial algorithm will be used


     G-vector sticks info
     --------------------
     sticks:   dense  smooth     PW     G-vecs:    dense   smooth      PW
     Sum         187     187     61                 1687     1687     339

     Using Slab Decomposition



     bravais-lattice index     =            2
     lattice parameter (alat)  =       7.3700  a.u.
     unit-cell volume          =     100.0789 (a.u.)^3
     number of atoms/cell      =            1
     number of atomic types    =            1
     number of electrons       =        10.00
     number of Kohn-Sham states=           10
     kinetic-energy cutoff     =      25.0000  Ry
     charge density cutoff     =     100.0000  Ry
     scf convergence threshold =      1.0E-08
     mixing beta               =       0.7000
     number of iterations used =            8  plain     mixing
     Exchange-correlation=  SLA  PZ   NOGX NOGC
                           (   1   1   0   0   0   0   0)
     Non magnetic calculation with spin-orbit


     celldm(1)=   7.370000  celldm(2)=   0.000000  celldm(3)=   0.000000
     celldm(4)=   0.000000  celldm(5)=   0.000000  celldm(6)=   0.000000

     crystal axes: (cart. coord. in units of alat)
               a(1) = (  -0.500000   0.000000   0.500000 )  
               a(2) = (   0.000000   0.500000   0.500000 )  
               a(3) = (  -0.500000   0.500000   0.000000 )  

     reciprocal axes: (cart. coord. in units 2 pi/alat)
               b(1) = ( -1.000000 -1.000000  1.000000 )  
               b(2) = (  1.000000  1.000000  1.000000 )  
               b(3) = ( -1.000000  1.000000 -1.000000 )  


     PseudoPot. # 1 for Pt read from file:
     /home/dashlander/Desktop/Sem7/CPD/Assignment_3/pseudo/Pt.rel-pz-n-rrkjus.UPF
     MD5 check sum: 4baafe8ec1942611396c7a5466f52249
     Pseudo is Ultrasoft + core correction, Zval = 10.0
     Generated by new atomic code, or converted to UPF format
     Using radial grid of 1277 points,  6 beta functions with: 
                l(1) =   2
                l(2) =   2
                l(3) =   2
                l(4) =   2
                l(5) =   1
                l(6) =   1
     Q(r) pseudized with 0 coefficients 


     atomic species   valence    mass     pseudopotential
     Pt               10.00   195.08400     Pt( 1.00)

     48 Sym. Ops., with inversion, found



   Cartesian axes

     site n.     atom                  positions (alat units)
         1        Pt     tau(   1) = (   0.0000000   0.0000000   0.0000000  )

     number of k points=    35
                       cart. coord. in units 2pi/alat
        k(    1) = (   0.0000000   0.0000000   0.0000000), wk =   0.0013717
        k(    2) = (  -0.1111111   0.1111111  -0.1111111), wk =   0.0109739
        k(    3) = (  -0.2222222   0.2222222  -0.2222222), wk =   0.0109739
        k(    4) = (  -0.3333333   0.3333333  -0.3333333), wk =   0.0109739
        k(    5) = (  -0.4444444   0.4444444  -0.4444444), wk =   0.0109739
        k(    6) = (   0.0000000   0.2222222   0.0000000), wk =   0.0082305
        k(    7) = (  -0.1111111   0.3333333  -0.1111111), wk =   0.0329218
        k(    8) = (  -0.2222222   0.4444444  -0.2222222), wk =   0.0329218
        k(    9) = (  -0.3333333   0.5555556  -0.3333333), wk =   0.0329218
        k(   10) = (   0.5555556  -0.3333333   0.5555556), wk =   0.0329218
        k(   11) = (   0.4444444  -0.2222222   0.4444444), wk =   0.0329218
        k(   12) = (   0.3333333  -0.1111111   0.3333333), wk =   0.0329218
        k(   13) = (   0.2222222  -0.0000000   0.2222222), wk =   0.0164609
        k(   14) = (   0.0000000   0.4444444   0.0000000), wk =   0.0082305
        k(   15) = (  -0.1111111   0.5555556  -0.1111111), wk =   0.0329218
        k(   16) = (  -0.2222222   0.6666667  -0.2222222), wk =   0.0329218
        k(   17) = (   0.6666667  -0.2222222   0.6666667), wk =   0.0329218
        k(   18) = (   0.5555556  -0.1111111   0.5555556), wk =   0.0329218
        k(   19) = (   0.4444444   0.0000000   0.4444444), wk =   0.0164609
        k(   20) = (   0.0000000   0.6666667   0.0000000), wk =   0.0082305
        k(   21) = (  -0.1111111   0.7777778  -0.1111111), wk =   0.0329218
        k(   22) = (   0.7777778  -0.1111111   0.7777778), wk =   0.0329218
        k(   23) = (   0.6666667  -0.0000000   0.6666667), wk =   0.0164609
        k(   24) = (   0.0000000   0.8888889   0.0000000), wk =   0.0082305
        k(   25) = (   0.8888889   0.0000000   0.8888889), wk =   0.0164609
        k(   26) = (  -0.2222222   0.4444444   0.0000000), wk =   0.0329218
        k(   27) = (  -0.3333333   0.5555556  -0.1111111), wk =   0.0658436
        k(   28) = (   0.5555556  -0.3333333   0.7777778), wk =   0.0658436
        k(   29) = (  -0.2222222   0.6666667   0.0000000), wk =   0.0329218
        k(   30) = (   0.6666667  -0.2222222   0.8888889), wk =   0.0658436
        k(   31) = (   0.5555556  -0.1111111   0.7777778), wk =   0.0658436
        k(   32) = (   0.4444444   0.0000000   0.6666667), wk =   0.0329218
        k(   33) = (   0.7777778  -0.1111111   1.0000000), wk =   0.0329218
        k(   34) = (   0.6666667  -0.0000000   0.8888889), wk =   0.0329218
        k(   35) = (   0.5555556  -0.1111111   1.0000000), wk =   0.0329218

     Dense  grid:     1687 G-vectors     FFT dimensions: (  18,  18,  18)

     Estimated max dynamical RAM per process >      16.40 MB

     Check: negative core charge=   -0.000066

     Initial potential from superposition of free atoms

     starting charge       9.9999, renormalised to      10.0000
     Starting wfcs are   12 randomized atomic wfcs

     total cpu time spent up to now is        0.8 secs

     Self-consistent Calculation

     iteration #  1     ecut=    25.00 Ry     beta= 0.70
     Davidson diagonalization with overlap
     ethr =  1.00E-02,  avg # of iterations =  2.2

     Threshold (ethr) on eigenvalues was too large:
     Diagonalizing with lowered threshold

     Davidson diagonalization with overlap
     ethr =  1.54E-05,  avg # of iterations =  7.8

     total cpu time spent up to now is        1.7 secs

     total energy              =     -69.45713701 Ry
     estimated scf accuracy    <       0.00470142 Ry

     iteration #  2     ecut=    25.00 Ry     beta= 0.70
     Davidson diagonalization with overlap
     ethr =  4.70E-05,  avg # of iterations =  2.1

     total cpu time spent up to now is        2.1 secs

     total energy              =     -69.45845094 Ry
     estimated scf accuracy    <       0.00058657 Ry

     iteration #  3     ecut=    25.00 Ry     beta= 0.70
     Davidson diagonalization with overlap
     ethr =  5.87E-06,  avg # of iterations =  2.0

     negative rho (up, down):  4.175E-06 0.000E+00

     total cpu time spent up to now is        2.4 secs

     total energy              =     -69.45855185 Ry
     estimated scf accuracy    <       0.00001857 Ry

     iteration #  4     ecut=    25.00 Ry     beta= 0.70
     Davidson diagonalization with overlap
     ethr =  1.86E-07,  avg # of iterations =  6.2

     negative rho (up, down):  4.317E-06 0.000E+00

     total cpu time spent up to now is        2.9 secs

     total energy              =     -69.45857215 Ry
     estimated scf accuracy    <       0.00000447 Ry

     iteration #  5     ecut=    25.00 Ry     beta= 0.70
     Davidson diagonalization with overlap
     ethr =  4.47E-08,  avg # of iterations =  3.1

     negative rho (up, down):  4.586E-06 0.000E+00

     total cpu time spent up to now is        3.2 secs

     total energy              =     -69.45857299 Ry
     estimated scf accuracy    <       0.00000024 Ry

     iteration #  6     ecut=    25.00 Ry     beta= 0.70
     Davidson diagonalization with overlap
     ethr =  2.36E-09,  avg # of iterations =  5.8

     negative rho (up, down):  4.638E-06 0.000E+00

     total cpu time spent up to now is        3.6 secs

     total energy              =     -69.45857324 Ry
     estimated scf accuracy    <       0.00000001 Ry

     iteration #  7     ecut=    25.00 Ry     beta= 0.70
     Davidson diagonalization with overlap
     ethr =  1.44E-10,  avg # of iterations =  4.5

     negative rho (up, down):  4.634E-06 0.000E+00

     total cpu time spent up to now is        4.0 secs

     End of self-consistent calculation

          k = 0.0000 0.0000 0.0000 (   181 PWs)   bands (ev):

     7.5667   7.5667  13.7593  13.7593  13.7593  13.7593  14.7497  14.7497
    16.5891  16.5891

          k =-0.1111 0.1111-0.1111 (   202 PWs)   bands (ev):

     8.0580   8.0580  13.7008  13.7008  13.8682  13.8682  14.8618  14.8618
    16.4192  16.4192

          k =-0.2222 0.2222-0.2222 (   205 PWs)   bands (ev):

     9.3058   9.3058  13.5994  13.5994  13.9574  13.9574  15.1482  15.1482
    16.3287  16.3287

          k =-0.3333 0.3333-0.3333 (   205 PWs)   bands (ev):

    10.3381  10.3381  13.7867  13.7867  14.5037  14.5037  14.9117  14.9117
    17.0988  17.0988

          k =-0.4444 0.4444-0.4444 (   213 PWs)   bands (ev):

    10.5221  10.5221  13.5929  13.5929  14.6068  14.6068  16.7321  16.7321
    17.8251  17.8251

          k = 0.0000 0.2222 0.0000 (   206 PWs)   bands (ev):

     8.2242   8.2242  13.5319  13.5319  14.0291  14.0291  14.9426  14.9426
    16.1918  16.1918

          k =-0.1111 0.3333-0.1111 (   207 PWs)   bands (ev):

     9.2518   9.2518  13.2399  13.2399  14.1768  14.1768  15.3066  15.3066
    16.0185  16.0185

          k =-0.2222 0.4444-0.2222 (   208 PWs)   bands (ev):

    10.4987  10.4987  13.4281  13.4281  13.9379  13.9379  15.1620  15.1620
    16.9533  16.9533

          k =-0.3333 0.5556-0.3333 (   212 PWs)   bands (ev):

    10.8905  10.8905  13.5793  13.5793  14.6053  14.6053  15.1301  15.1301
    18.0919  18.0919

          k = 0.5556-0.3333 0.5556 (   211 PWs)   bands (ev):

    10.9131  10.9131  13.5015  13.5015  14.6188  14.6188  15.8214  15.8214
    18.0268  18.0268

          k = 0.4444-0.2222 0.4444 (   215 PWs)   bands (ev):

    10.8838  10.8838  13.6699  13.6699  14.5230  14.5230  14.8808  14.8808
    17.1415  17.1415

          k = 0.3333-0.1111 0.3333 (   210 PWs)   bands (ev):

    10.1614  10.1614  13.3579  13.3579  14.0353  14.0353  15.2409  15.2409
    16.1242  16.1242

          k = 0.2222-0.0000 0.2222 (   212 PWs)   bands (ev):

     8.8270   8.8270  13.4677  13.4677  14.0473  14.0473  15.1241  15.1241
    16.0595  16.0595

          k = 0.0000 0.4444 0.0000 (   210 PWs)   bands (ev):

     9.9061   9.9061  12.7255  12.7255  14.4669  14.4669  15.8486  15.8486
    15.8831  15.8831

          k =-0.1111 0.5556-0.1111 (   213 PWs)   bands (ev):

    10.9120  10.9120  12.4191  12.4191  14.2838  14.2838  16.0237  16.0237
    16.9737  16.9737

          k =-0.2222 0.6667-0.2222 (   216 PWs)   bands (ev):

    11.4648  11.4648  12.7931  12.7931  14.0631  14.0631  15.7916  15.7916
    18.2185  18.2185

          k = 0.6667-0.2222 0.6667 (   214 PWs)   bands (ev):

    11.6700  11.6700  13.0461  13.0461  14.3879  14.3879  15.5479  15.5479
    18.1024  18.1024

          k = 0.5556-0.1111 0.5556 (   211 PWs)   bands (ev):

    11.9176  11.9176  13.2328  13.2328  14.0228  14.0228  15.3644  15.3644
    17.1784  17.1784

          k = 0.4444 0.0000 0.4444 (   210 PWs)   bands (ev):

    11.5090  11.5090  13.1007  13.1007  13.7924  13.7924  15.4107  15.4107
    16.1988  16.1988

          k = 0.0000 0.6667 0.0000 (   218 PWs)   bands (ev):

    11.0115  11.0115  11.8388  11.8388  15.5392  15.5392  17.0683  17.0683
    17.1238  17.1238

          k =-0.1111 0.7778-0.1111 (   208 PWs)   bands (ev):

    11.1699  11.1699  11.7253  11.7253  15.7475  15.7475  17.1514  17.1514
    18.3037  18.3037

          k = 0.7778-0.1111 0.7778 (   215 PWs)   bands (ev):

    11.4771  11.4771  12.2133  12.2133  15.1346  15.1346  16.7378  16.7378
    18.3192  18.3192

          k = 0.6667-0.0000 0.6667 (   220 PWs)   bands (ev):

    11.9870  11.9870  12.9131  12.9131  14.1994  14.1994  16.1389  16.1389
    17.6302  17.6302

          k = 0.0000 0.8889 0.0000 (   218 PWs)   bands (ev):

    10.7899  10.7899  11.3072  11.3072  17.8310  17.8310  17.9552  17.9552
    18.9536  18.9536

          k = 0.8889 0.0000 0.8889 (   214 PWs)   bands (ev):

    10.9531  10.9531  11.4598  11.4598  16.9185  16.9185  17.6958  17.6958
    18.7313  18.7313

          k =-0.2222 0.4444 0.0000 (   209 PWs)   bands (ev):

    10.3869  10.3869  12.8874  12.8874  14.0868  14.0868  15.7514  15.7514
    15.9886  15.9886

          k =-0.3333 0.5556-0.1111 (   213 PWs)   bands (ev):

    11.4429  11.4429  13.1422  13.1422  13.6379  13.6379  15.5591  15.5591
    17.0006  17.0006

          k = 0.5556-0.3333 0.7778 (   211 PWs)   bands (ev):

    11.5823  11.5823  13.1837  13.1837  14.3404  14.3404  15.3624  15.3624
    17.9015  17.9015

          k =-0.2222 0.6667 0.0000 (   211 PWs)   bands (ev):

    11.5320  11.5320  12.1662  12.1662  14.2839  14.2839  16.8832  16.8832
    17.1653  17.1653

          k = 0.6667-0.2222 0.8889 (   210 PWs)   bands (ev):

    11.8738  11.8738  12.5166  12.5166  14.0742  14.0742  16.4839  16.4839
    18.0592  18.0592

          k = 0.5556-0.1111 0.7778 (   211 PWs)   bands (ev):

    12.2496  12.2496  12.7732  12.7732  13.8952  13.8952  16.0416  16.0416
    17.9618  17.9618

          k = 0.4444 0.0000 0.6667 (   211 PWs)   bands (ev):

    12.5715  12.5715  12.9090  12.9090  13.1658  13.1658  16.0505  16.0505
    17.2201  17.2201

          k = 0.7778-0.1111 1.0000 (   209 PWs)   bands (ev):

    11.2701  11.2701  11.7172  11.7172  15.7522  15.7522  17.4374  17.4374
    18.5327  18.5327

          k = 0.6667-0.0000 0.8889 (   212 PWs)   bands (ev):

    11.6977  11.6977  12.2845  12.2845  14.8022  14.8022  16.6995  16.6995
    18.4952  18.4952

          k = 0.5556-0.1111 1.0000 (   212 PWs)   bands (ev):

    12.1755  12.1755  12.8908  12.8908  13.6300  13.6300  16.2996  16.2996
    18.4637  18.4637

     highest occupied level (ev):    18.9536

!    total energy              =     -69.45857324 Ry
     estimated scf accuracy    <          1.6E-09 Ry

     The total energy is the sum of the following terms:
     one-electron contribution =      17.64956147 Ry
     hartree contribution      =       3.67225572 Ry
     xc contribution           =     -28.57059287 Ry
     ewald contribution        =     -62.20979756 Ry

     convergence has been achieved in   7 iterations

     negative rho (up, down):  4.634E-06 0.000E+00

     Forces acting on atoms (cartesian axes, Ry/au):

     atom    1 type  1   force =     0.00000000    0.00000000    0.00000000

     Total force =     0.000000     Total SCF correction =     0.000000


     Computing stress (Cartesian axis) and pressure


     negative rho (up, down):  4.634E-06 0.000E+00
          total   stress  (Ry/bohr**3)                   (kbar)     P=      107.51
   0.00073081   0.00000000  -0.00000000          107.51        0.00       -0.00
   0.00000000   0.00073081   0.00000000            0.00      107.51        0.00
  -0.00000000   0.00000000   0.00073081           -0.00        0.00      107.51


     Writing all to output data dir ./platinum.save/ :
     XML data file, charge density, pseudopotentials, collected wavefunctions

     init_run     :      0.44s CPU      0.65s WALL (       1 calls)
     electrons    :      3.03s CPU      3.27s WALL (       1 calls)
     forces       :      0.05s CPU      0.05s WALL (       1 calls)
     stress       :      0.21s CPU      0.21s WALL (       1 calls)

     Called by init_run:
     wfcinit      :      0.16s CPU      0.26s WALL (       1 calls)
     potinit      :      0.01s CPU      0.01s WALL (       1 calls)
     hinit0       :      0.26s CPU      0.36s WALL (       1 calls)

     Called by electrons:
     c_bands      :      2.51s CPU      2.72s WALL (       8 calls)
     sum_band     :      0.43s CPU      0.44s WALL (       8 calls)
     v_of_rho     :      0.00s CPU      0.00s WALL (       8 calls)
     newd         :      0.10s CPU      0.11s WALL (       8 calls)
     mix_rho      :      0.00s CPU      0.00s WALL (       8 calls)

     Called by c_bands:
     init_us_2    :      0.03s CPU      0.03s WALL (     665 calls)
     cegterg      :      2.39s CPU      2.59s WALL (     280 calls)

     Called by *egterg:
     cdiaghg      :      0.10s CPU      0.11s WALL (    1425 calls)
     h_psi        :      1.72s CPU      1.96s WALL (    1495 calls)
     s_psi        :      0.17s CPU      0.18s WALL (    1495 calls)
     g_psi        :      0.02s CPU      0.02s WALL (    1180 calls)

     Called by h_psi:
     h_psi:calbec :      0.14s CPU      0.15s WALL (    1495 calls)
     vloc_psi     :      1.39s CPU      1.61s WALL (    1495 calls)
     add_vuspsi   :      0.17s CPU      0.18s WALL (    1495 calls)

     General routines
     calbec       :      0.19s CPU      0.21s WALL (    1950 calls)
     fft          :      0.11s CPU      0.21s WALL (      89 calls)
     ffts         :      0.00s CPU      0.00s WALL (      32 calls)
     fftw         :      1.25s CPU      1.45s WALL (   48096 calls)

     Parallel routines

     PWSCF        :      3.85s CPU      4.30s WALL


   This run was terminated on:  13:47:15   4Nov2024            

=------------------------------------------------------------------------------=
   JOB DONE.
=------------------------------------------------------------------------------=
