
     Program PWSCF v.7.3.1 starts on  4Nov2024 at 22: 2:32 

     This program is part of the open-source Quantum ESPRESSO suite
     for quantum simulation of materials; please cite
         "P. Giannozzi et al., J. Phys.:Condens. Matter 21 395502 (2009);
         "P. Giannozzi et al., J. Phys.:Condens. Matter 29 465901 (2017);
         "P. Giannozzi et al., J. Chem. Phys. 152 154105 (2020);
          URL http://www.quantum-espresso.org", 
     in publications or presentations arising from this work. More details at
     http://www.quantum-espresso.org/quote

     Parallel version (MPI), running on     1 processors

     MPI processes distributed on     1 nodes
     11834 MiB available memory on the printing compute node when the environment starts

     Waiting for input...
     Reading input from standard input

     Current dimensions of program PWSCF are:
     Max number of different atomic species (ntypx) = 10
     Max number of k-points (npk) =  40000
     Max angular momentum in pseudopotentials (lmaxx) =  4

     Subspace diagonalization in iterative solution of the eigenvalue problem:
     a serial algorithm will be used


     G-vector sticks info
     --------------------
     sticks:   dense  smooth     PW     G-vecs:    dense   smooth      PW
     Sum         163     163     61                 1459     1459     331

     Using Slab Decomposition



     bravais-lattice index     =            2
     lattice parameter (alat)  =       7.8000  a.u.
     unit-cell volume          =     118.6380 (a.u.)^3
     number of atoms/cell      =            1
     number of atomic types    =            1
     number of electrons       =        10.00
     number of Kohn-Sham states=           10
     kinetic-energy cutoff     =      20.0000  Ry
     charge density cutoff     =      80.0000  Ry
     scf convergence threshold =      1.0E-08
     mixing beta               =       0.7000
     number of iterations used =            8  plain     mixing
     Exchange-correlation=  SLA  PZ   NOGX NOGC
                           (   1   1   0   0   0   0   0)
     Non magnetic calculation with spin-orbit


     celldm(1)=   7.800000  celldm(2)=   0.000000  celldm(3)=   0.000000
     celldm(4)=   0.000000  celldm(5)=   0.000000  celldm(6)=   0.000000

     crystal axes: (cart. coord. in units of alat)
               a(1) = (  -0.500000   0.000000   0.500000 )  
               a(2) = (   0.000000   0.500000   0.500000 )  
               a(3) = (  -0.500000   0.500000   0.000000 )  

     reciprocal axes: (cart. coord. in units 2 pi/alat)
               b(1) = ( -1.000000 -1.000000  1.000000 )  
               b(2) = (  1.000000  1.000000  1.000000 )  
               b(3) = ( -1.000000  1.000000 -1.000000 )  


     PseudoPot. # 1 for Pt read from file:
     /home/dashlander/Desktop/Sem7/CPD/Assignment_3/pseudo/Pt.rel-pz-n-rrkjus.UPF
     MD5 check sum: 4baafe8ec1942611396c7a5466f52249
     Pseudo is Ultrasoft + core correction, Zval = 10.0
     Generated by new atomic code, or converted to UPF format
     Using radial grid of 1277 points,  6 beta functions with: 
                l(1) =   2
                l(2) =   2
                l(3) =   2
                l(4) =   2
                l(5) =   1
                l(6) =   1
     Q(r) pseudized with 0 coefficients 


     atomic species   valence    mass     pseudopotential
     Pt               10.00   195.08400     Pt( 1.00)

     48 Sym. Ops., with inversion, found



   Cartesian axes

     site n.     atom                  positions (alat units)
         1        Pt     tau(   1) = (   0.0000000   0.0000000   0.0000000  )

     number of k points=    35
                       cart. coord. in units 2pi/alat
        k(    1) = (   0.0000000   0.0000000   0.0000000), wk =   0.0013717
        k(    2) = (  -0.1111111   0.1111111  -0.1111111), wk =   0.0109739
        k(    3) = (  -0.2222222   0.2222222  -0.2222222), wk =   0.0109739
        k(    4) = (  -0.3333333   0.3333333  -0.3333333), wk =   0.0109739
        k(    5) = (  -0.4444444   0.4444444  -0.4444444), wk =   0.0109739
        k(    6) = (   0.0000000   0.2222222   0.0000000), wk =   0.0082305
        k(    7) = (  -0.1111111   0.3333333  -0.1111111), wk =   0.0329218
        k(    8) = (  -0.2222222   0.4444444  -0.2222222), wk =   0.0329218
        k(    9) = (  -0.3333333   0.5555556  -0.3333333), wk =   0.0329218
        k(   10) = (   0.5555556  -0.3333333   0.5555556), wk =   0.0329218
        k(   11) = (   0.4444444  -0.2222222   0.4444444), wk =   0.0329218
        k(   12) = (   0.3333333  -0.1111111   0.3333333), wk =   0.0329218
        k(   13) = (   0.2222222  -0.0000000   0.2222222), wk =   0.0164609
        k(   14) = (   0.0000000   0.4444444   0.0000000), wk =   0.0082305
        k(   15) = (  -0.1111111   0.5555556  -0.1111111), wk =   0.0329218
        k(   16) = (  -0.2222222   0.6666667  -0.2222222), wk =   0.0329218
        k(   17) = (   0.6666667  -0.2222222   0.6666667), wk =   0.0329218
        k(   18) = (   0.5555556  -0.1111111   0.5555556), wk =   0.0329218
        k(   19) = (   0.4444444   0.0000000   0.4444444), wk =   0.0164609
        k(   20) = (   0.0000000   0.6666667   0.0000000), wk =   0.0082305
        k(   21) = (  -0.1111111   0.7777778  -0.1111111), wk =   0.0329218
        k(   22) = (   0.7777778  -0.1111111   0.7777778), wk =   0.0329218
        k(   23) = (   0.6666667  -0.0000000   0.6666667), wk =   0.0164609
        k(   24) = (   0.0000000   0.8888889   0.0000000), wk =   0.0082305
        k(   25) = (   0.8888889   0.0000000   0.8888889), wk =   0.0164609
        k(   26) = (  -0.2222222   0.4444444   0.0000000), wk =   0.0329218
        k(   27) = (  -0.3333333   0.5555556  -0.1111111), wk =   0.0658436
        k(   28) = (   0.5555556  -0.3333333   0.7777778), wk =   0.0658436
        k(   29) = (  -0.2222222   0.6666667   0.0000000), wk =   0.0329218
        k(   30) = (   0.6666667  -0.2222222   0.8888889), wk =   0.0658436
        k(   31) = (   0.5555556  -0.1111111   0.7777778), wk =   0.0658436
        k(   32) = (   0.4444444   0.0000000   0.6666667), wk =   0.0329218
        k(   33) = (   0.7777778  -0.1111111   1.0000000), wk =   0.0329218
        k(   34) = (   0.6666667  -0.0000000   0.8888889), wk =   0.0329218
        k(   35) = (   0.5555556  -0.1111111   1.0000000), wk =   0.0329218

     Dense  grid:     1459 G-vectors     FFT dimensions: (  15,  15,  15)

     Estimated max dynamical RAM per process >      13.87 MB

     Check: negative core charge=   -0.000039

     Initial potential from superposition of free atoms

     starting charge       9.9999, renormalised to      10.0000

     negative rho (up, down):  1.815E-04 0.000E+00
     Starting wfcs are   12 randomized atomic wfcs

     total cpu time spent up to now is        0.4 secs

     Self-consistent Calculation

     iteration #  1     ecut=    20.00 Ry     beta= 0.70
     Davidson diagonalization with overlap
     ethr =  1.00E-02,  avg # of iterations =  2.0

     Threshold (ethr) on eigenvalues was too large:
     Diagonalizing with lowered threshold

     Davidson diagonalization with overlap
     ethr =  4.37E-05,  avg # of iterations =  6.4

     negative rho (up, down):  2.612E-04 0.000E+00

     total cpu time spent up to now is        1.0 secs

     total energy              =     -69.44362681 Ry
     estimated scf accuracy    <       0.00202445 Ry

     iteration #  2     ecut=    20.00 Ry     beta= 0.70
     Davidson diagonalization with overlap
     ethr =  2.02E-05,  avg # of iterations =  2.2

     negative rho (up, down):  2.835E-04 0.000E+00

     total cpu time spent up to now is        1.2 secs

     total energy              =     -69.44406182 Ry
     estimated scf accuracy    <       0.00022336 Ry

     iteration #  3     ecut=    20.00 Ry     beta= 0.70
     Davidson diagonalization with overlap
     ethr =  2.23E-06,  avg # of iterations =  3.0

     negative rho (up, down):  2.989E-04 0.000E+00

     total cpu time spent up to now is        1.4 secs

     total energy              =     -69.44412124 Ry
     estimated scf accuracy    <       0.00000901 Ry

     iteration #  4     ecut=    20.00 Ry     beta= 0.70
     Davidson diagonalization with overlap
     ethr =  9.01E-08,  avg # of iterations =  6.3

     negative rho (up, down):  2.989E-04 0.000E+00

     total cpu time spent up to now is        1.7 secs

     total energy              =     -69.44413006 Ry
     estimated scf accuracy    <       0.00000098 Ry

     iteration #  5     ecut=    20.00 Ry     beta= 0.70
     Davidson diagonalization with overlap
     ethr =  9.82E-09,  avg # of iterations =  4.1

     negative rho (up, down):  2.990E-04 0.000E+00

     total cpu time spent up to now is        2.0 secs

     End of self-consistent calculation

          k = 0.0000 0.0000 0.0000 (   169 PWs)   bands (ev):

     5.2895   5.2895  10.5970  10.5970  10.5970  10.5970  11.6227  11.6227
    12.9653  12.9653

          k =-0.1111 0.1111-0.1111 (   172 PWs)   bands (ev):

     5.7091   5.7091  10.5752  10.5752  10.6699  10.6699  11.7071  11.7071
    12.8324  12.8324

          k =-0.2222 0.2222-0.2222 (   171 PWs)   bands (ev):

     6.8052   6.8052  10.5420  10.5420  10.7278  10.7278  11.9341  11.9341
    12.7279  12.7279

          k =-0.3333 0.3333-0.3333 (   183 PWs)   bands (ev):

     7.8165   7.8165  10.6125  10.6125  11.2785  11.2785  11.7594  11.7594
    13.2939  13.2939

          k =-0.4444 0.4444-0.4444 (   174 PWs)   bands (ev):

     8.0675   8.0675  10.4776  10.4776  11.5056  11.5056  13.2602  13.2602
    13.8709  13.8709

          k = 0.0000 0.2222 0.0000 (   173 PWs)   bands (ev):

     5.8508   5.8508  10.4548  10.4548  10.7904  10.7904  11.7568  11.7568
    12.6996  12.6996

          k =-0.1111 0.3333-0.1111 (   173 PWs)   bands (ev):

     6.7444   6.7444  10.2689  10.2689  10.8992  10.8992  12.0330  12.0330
    12.5512  12.5512

          k =-0.2222 0.4444-0.2222 (   175 PWs)   bands (ev):

     7.9023   7.9023  10.4103  10.4103  10.7767  10.7767  11.9350  11.9350
    13.1961  13.1961

          k =-0.3333 0.5556-0.3333 (   178 PWs)   bands (ev):

     8.3551   8.3551  10.4906  10.4906  11.4358  11.4358  11.9155  11.9155
    14.0367  14.0367

          k = 0.5556-0.3333 0.5556 (   174 PWs)   bands (ev):

     8.3970   8.3970  10.4341  10.4341  11.4919  11.4919  12.4672  12.4672
    14.0071  14.0071

          k = 0.4444-0.2222 0.4444 (   179 PWs)   bands (ev):

     8.3154   8.3154  10.5414  10.5414  11.3417  11.3417  11.7243  11.7243
    13.3630  13.3630

          k = 0.3333-0.1111 0.3333 (   176 PWs)   bands (ev):

     7.5635   7.5635  10.3634  10.3634  10.8157  10.8157  12.0000  12.0000
    12.6123  12.6123

          k = 0.2222-0.0000 0.2222 (   174 PWs)   bands (ev):

     6.3719   6.3719  10.4288  10.4288  10.7995  10.7995  11.8997  11.8997
    12.5800  12.5800

          k = 0.0000 0.4444 0.0000 (   177 PWs)   bands (ev):

     7.3295   7.3295   9.8979   9.8979  11.1194  11.1194  12.3917  12.3917
    12.4949  12.4949

          k =-0.1111 0.5556-0.1111 (   182 PWs)   bands (ev):

     8.2741   8.2741   9.6719   9.6719  11.0509  11.0509  12.5439  12.5439
    13.2089  13.2089

          k =-0.2222 0.6667-0.2222 (   184 PWs)   bands (ev):

     8.8539   8.8539   9.9653   9.9653  10.9290  10.9290  12.3723  12.3723
    14.1237  14.1237

          k = 0.6667-0.2222 0.6667 (   180 PWs)   bands (ev):

     9.0360   9.0360  10.1601  10.1601  11.2365  11.2365  12.2037  12.2037
    14.0626  14.0626

          k = 0.5556-0.1111 0.5556 (   177 PWs)   bands (ev):

     9.1955   9.1955  10.2686  10.2686  10.9935  10.9935  12.0268  12.0268
    13.4041  13.4041

          k = 0.4444 0.0000 0.4444 (   174 PWs)   bands (ev):

     8.7506   8.7506  10.1748  10.1748  10.7209  10.7209  12.0634  12.0634
    12.6994  12.6994

          k = 0.0000 0.6667 0.0000 (   174 PWs)   bands (ev):

     8.4766   8.4766   9.2358   9.2358  12.0359  12.0359  13.2822  13.2822
    13.3391  13.3391

          k =-0.1111 0.7778-0.1111 (   179 PWs)   bands (ev):

     8.6796   8.6796   9.1444   9.1444  12.2672  12.2672  13.3517  13.3517
    14.2229  14.2229

          k = 0.7778-0.1111 0.7778 (   182 PWs)   bands (ev):

     8.9469   8.9469   9.5222   9.5222  11.8249  11.8249  13.0428  13.0428
    14.2475  14.2475

          k = 0.6667-0.0000 0.6667 (   186 PWs)   bands (ev):

     9.3268   9.3268  10.0444  10.0444  11.1329  11.1329  12.5833  12.5833
    13.7502  13.7502

          k = 0.0000 0.8889 0.0000 (   190 PWs)   bands (ev):

     8.4069   8.4069   8.8263   8.8263  13.7782  13.7782  13.8798  13.8798
    14.8897  14.8897

          k = 0.8889 0.0000 0.8889 (   182 PWs)   bands (ev):

     8.5470   8.5470   8.9392   8.9392  13.1989  13.1989  13.7084  13.7084
    14.6141  14.6141

          k =-0.2222 0.4444 0.0000 (   175 PWs)   bands (ev):

     7.7485   7.7485  10.0207  10.0207  10.8773  10.8773  12.3646  12.3646
    12.5014  12.5014

          k =-0.3333 0.5556-0.1111 (   181 PWs)   bands (ev):

     8.7504   8.7504  10.2012  10.2012  10.6163  10.6163  12.1948  12.1948
    13.2601  13.2601

          k = 0.5556-0.3333 0.7778 (   175 PWs)   bands (ev):

     8.9403   8.9403  10.2519  10.2519  11.1987  11.1987  12.0802  12.0802
    13.9159  13.9159

          k =-0.2222 0.6667 0.0000 (   182 PWs)   bands (ev):

     8.8970   8.8970   9.4814   9.4814  11.1003  11.1003  13.1586  13.1586
    13.3848  13.3848

          k = 0.6667-0.2222 0.8889 (   181 PWs)   bands (ev):

     9.2322   9.2322   9.7557   9.7557  10.9778  10.9778  12.8827  12.8827
    14.0391  14.0391

          k = 0.5556-0.1111 0.7778 (   179 PWs)   bands (ev):

     9.5164   9.5164   9.9540   9.9540  10.8701  10.8701  12.5569  12.5569
    13.9697  13.9697

          k = 0.4444 0.0000 0.6667 (   181 PWs)   bands (ev):

     9.6927   9.6927  10.0178  10.0178  10.3552  10.3552  12.5488  12.5488
    13.4310  13.4310

          k = 0.7778-0.1111 1.0000 (   181 PWs)   bands (ev):

     8.7918   8.7918   9.1343   9.1343  12.2986  12.2986  13.5532  13.5532
    14.4247  14.4247

          k = 0.6667-0.0000 0.8889 (   181 PWs)   bands (ev):

     9.1331   9.1331   9.5696   9.5696  11.5717  11.5717  13.0306  13.0306
    14.3724  14.3724

          k = 0.5556-0.1111 1.0000 (   187 PWs)   bands (ev):

     9.5079   9.5079  10.0120  10.0120  10.6734  10.6734  12.7556  12.7556
    14.3334  14.3334

     highest occupied level (ev):    14.8897

!    total energy              =     -69.44413055 Ry
     estimated scf accuracy    <          3.0E-09 Ry

     The total energy is the sum of the following terms:
     one-electron contribution =      13.03675699 Ry
     hartree contribution      =       4.69392338 Ry
     xc contribution           =     -28.39452789 Ry
     ewald contribution        =     -58.78028302 Ry

     convergence has been achieved in   5 iterations

     negative rho (up, down):  2.990E-04 0.000E+00

     Forces acting on atoms (cartesian axes, Ry/au):

     atom    1 type  1   force =     0.00000000    0.00000000    0.00000000

     Total force =     0.000000     Total SCF correction =     0.000000


     Computing stress (Cartesian axis) and pressure


     negative rho (up, down):  2.990E-04 0.000E+00
          total   stress  (Ry/bohr**3)                   (kbar)     P=     -250.43
  -0.00170241  -0.00000000  -0.00000000         -250.43       -0.00       -0.00
  -0.00000000  -0.00170241   0.00000000           -0.00     -250.43        0.00
  -0.00000000   0.00000000  -0.00170241           -0.00        0.00     -250.43


     Writing all to output data dir ./platinum.save/ :
     XML data file, charge density, pseudopotentials, collected wavefunctions

     init_run     :      0.25s CPU      0.28s WALL (       1 calls)
     electrons    :      1.46s CPU      1.63s WALL (       1 calls)
     forces       :      0.04s CPU      0.04s WALL (       1 calls)
     stress       :      0.19s CPU      0.19s WALL (       1 calls)

     Called by init_run:
     wfcinit      :      0.07s CPU      0.08s WALL (       1 calls)
     potinit      :      0.01s CPU      0.01s WALL (       1 calls)
     hinit0       :      0.16s CPU      0.18s WALL (       1 calls)

     Called by electrons:
     c_bands      :      1.16s CPU      1.31s WALL (       6 calls)
     sum_band     :      0.23s CPU      0.25s WALL (       6 calls)
     v_of_rho     :      0.00s CPU      0.00s WALL (       6 calls)
     newd         :      0.08s CPU      0.08s WALL (       6 calls)
     mix_rho      :      0.00s CPU      0.00s WALL (       6 calls)

     Called by c_bands:
     init_us_2    :      0.02s CPU      0.02s WALL (     525 calls)
     cegterg      :      1.09s CPU      1.23s WALL (     210 calls)

     Called by *egterg:
     cdiaghg      :      0.07s CPU      0.08s WALL (    1013 calls)
     h_psi        :      0.63s CPU      0.72s WALL (    1083 calls)
     s_psi        :      0.11s CPU      0.12s WALL (    1083 calls)
     g_psi        :      0.01s CPU      0.01s WALL (     838 calls)

     Called by h_psi:
     h_psi:calbec :      0.09s CPU      0.10s WALL (    1083 calls)
     vloc_psi     :      0.43s CPU      0.49s WALL (    1083 calls)
     add_vuspsi   :      0.10s CPU      0.12s WALL (    1083 calls)

     General routines
     calbec       :      0.12s CPU      0.14s WALL (    1468 calls)
     fft          :      0.01s CPU      0.03s WALL (      69 calls)
     ffts         :      0.00s CPU      0.00s WALL (      24 calls)
     fftw         :      0.32s CPU      0.37s WALL (   35836 calls)

     Parallel routines

     PWSCF        :      2.04s CPU      2.25s WALL


   This run was terminated on:  22: 2:34   4Nov2024            

=------------------------------------------------------------------------------=
   JOB DONE.
=------------------------------------------------------------------------------=
