
     Program PWSCF v.7.3.1 starts on  4Nov2024 at 22: 0:11 

     This program is part of the open-source Quantum ESPRESSO suite
     for quantum simulation of materials; please cite
         "P. Giannozzi et al., J. Phys.:Condens. Matter 21 395502 (2009);
         "P. Giannozzi et al., J. Phys.:Condens. Matter 29 465901 (2017);
         "P. Giannozzi et al., J. Chem. Phys. 152 154105 (2020);
          URL http://www.quantum-espresso.org", 
     in publications or presentations arising from this work. More details at
     http://www.quantum-espresso.org/quote

     Parallel version (MPI), running on     1 processors

     MPI processes distributed on     1 nodes
     11894 MiB available memory on the printing compute node when the environment starts

     Waiting for input...
     Reading input from standard input

     Current dimensions of program PWSCF are:
     Max number of different atomic species (ntypx) = 10
     Max number of k-points (npk) =  40000
     Max angular momentum in pseudopotentials (lmaxx) =  4

     Subspace diagonalization in iterative solution of the eigenvalue problem:
     a serial algorithm will be used


     G-vector sticks info
     --------------------
     sticks:   dense  smooth     PW     G-vecs:    dense   smooth      PW
     Sum         139     139     55                 1067     1067     283

     Using Slab Decomposition



     bravais-lattice index     =            2
     lattice parameter (alat)  =       7.1400  a.u.
     unit-cell volume          =      90.9986 (a.u.)^3
     number of atoms/cell      =            1
     number of atomic types    =            1
     number of electrons       =        10.00
     number of Kohn-Sham states=           10
     kinetic-energy cutoff     =      20.0000  Ry
     charge density cutoff     =      80.0000  Ry
     scf convergence threshold =      1.0E-08
     mixing beta               =       0.7000
     number of iterations used =            8  plain     mixing
     Exchange-correlation=  SLA  PZ   NOGX NOGC
                           (   1   1   0   0   0   0   0)
     Non magnetic calculation with spin-orbit


     celldm(1)=   7.140000  celldm(2)=   0.000000  celldm(3)=   0.000000
     celldm(4)=   0.000000  celldm(5)=   0.000000  celldm(6)=   0.000000

     crystal axes: (cart. coord. in units of alat)
               a(1) = (  -0.500000   0.000000   0.500000 )  
               a(2) = (   0.000000   0.500000   0.500000 )  
               a(3) = (  -0.500000   0.500000   0.000000 )  

     reciprocal axes: (cart. coord. in units 2 pi/alat)
               b(1) = ( -1.000000 -1.000000  1.000000 )  
               b(2) = (  1.000000  1.000000  1.000000 )  
               b(3) = ( -1.000000  1.000000 -1.000000 )  


     PseudoPot. # 1 for Pt read from file:
     /home/dashlander/Desktop/Sem7/CPD/Assignment_3/pseudo/Pt.rel-pz-n-rrkjus.UPF
     MD5 check sum: 4baafe8ec1942611396c7a5466f52249
     Pseudo is Ultrasoft + core correction, Zval = 10.0
     Generated by new atomic code, or converted to UPF format
     Using radial grid of 1277 points,  6 beta functions with: 
                l(1) =   2
                l(2) =   2
                l(3) =   2
                l(4) =   2
                l(5) =   1
                l(6) =   1
     Q(r) pseudized with 0 coefficients 


     atomic species   valence    mass     pseudopotential
     Pt               10.00   195.08400     Pt( 1.00)

     48 Sym. Ops., with inversion, found



   Cartesian axes

     site n.     atom                  positions (alat units)
         1        Pt     tau(   1) = (   0.0000000   0.0000000   0.0000000  )

     number of k points=    35
                       cart. coord. in units 2pi/alat
        k(    1) = (   0.0000000   0.0000000   0.0000000), wk =   0.0013717
        k(    2) = (  -0.1111111   0.1111111  -0.1111111), wk =   0.0109739
        k(    3) = (  -0.2222222   0.2222222  -0.2222222), wk =   0.0109739
        k(    4) = (  -0.3333333   0.3333333  -0.3333333), wk =   0.0109739
        k(    5) = (  -0.4444444   0.4444444  -0.4444444), wk =   0.0109739
        k(    6) = (   0.0000000   0.2222222   0.0000000), wk =   0.0082305
        k(    7) = (  -0.1111111   0.3333333  -0.1111111), wk =   0.0329218
        k(    8) = (  -0.2222222   0.4444444  -0.2222222), wk =   0.0329218
        k(    9) = (  -0.3333333   0.5555556  -0.3333333), wk =   0.0329218
        k(   10) = (   0.5555556  -0.3333333   0.5555556), wk =   0.0329218
        k(   11) = (   0.4444444  -0.2222222   0.4444444), wk =   0.0329218
        k(   12) = (   0.3333333  -0.1111111   0.3333333), wk =   0.0329218
        k(   13) = (   0.2222222  -0.0000000   0.2222222), wk =   0.0164609
        k(   14) = (   0.0000000   0.4444444   0.0000000), wk =   0.0082305
        k(   15) = (  -0.1111111   0.5555556  -0.1111111), wk =   0.0329218
        k(   16) = (  -0.2222222   0.6666667  -0.2222222), wk =   0.0329218
        k(   17) = (   0.6666667  -0.2222222   0.6666667), wk =   0.0329218
        k(   18) = (   0.5555556  -0.1111111   0.5555556), wk =   0.0329218
        k(   19) = (   0.4444444   0.0000000   0.4444444), wk =   0.0164609
        k(   20) = (   0.0000000   0.6666667   0.0000000), wk =   0.0082305
        k(   21) = (  -0.1111111   0.7777778  -0.1111111), wk =   0.0329218
        k(   22) = (   0.7777778  -0.1111111   0.7777778), wk =   0.0329218
        k(   23) = (   0.6666667  -0.0000000   0.6666667), wk =   0.0164609
        k(   24) = (   0.0000000   0.8888889   0.0000000), wk =   0.0082305
        k(   25) = (   0.8888889   0.0000000   0.8888889), wk =   0.0164609
        k(   26) = (  -0.2222222   0.4444444   0.0000000), wk =   0.0329218
        k(   27) = (  -0.3333333   0.5555556  -0.1111111), wk =   0.0658436
        k(   28) = (   0.5555556  -0.3333333   0.7777778), wk =   0.0658436
        k(   29) = (  -0.2222222   0.6666667   0.0000000), wk =   0.0329218
        k(   30) = (   0.6666667  -0.2222222   0.8888889), wk =   0.0658436
        k(   31) = (   0.5555556  -0.1111111   0.7777778), wk =   0.0658436
        k(   32) = (   0.4444444   0.0000000   0.6666667), wk =   0.0329218
        k(   33) = (   0.7777778  -0.1111111   1.0000000), wk =   0.0329218
        k(   34) = (   0.6666667  -0.0000000   0.8888889), wk =   0.0329218
        k(   35) = (   0.5555556  -0.1111111   1.0000000), wk =   0.0329218

     Dense  grid:     1067 G-vectors     FFT dimensions: (  15,  15,  15)

     Estimated max dynamical RAM per process >      10.57 MB

     Check: negative core charge=   -0.000041

     Initial potential from superposition of free atoms

     starting charge       9.9999, renormalised to      10.0000

     negative rho (up, down):  1.471E-04 0.000E+00
     Starting wfcs are   12 randomized atomic wfcs

     total cpu time spent up to now is        0.4 secs

     Self-consistent Calculation

     iteration #  1     ecut=    20.00 Ry     beta= 0.70
     Davidson diagonalization with overlap
     ethr =  1.00E-02,  avg # of iterations =  2.3

     Threshold (ethr) on eigenvalues was too large:
     Diagonalizing with lowered threshold

     Davidson diagonalization with overlap
     ethr =  1.13E-05,  avg # of iterations =  7.8

     negative rho (up, down):  2.451E-04 0.000E+00

     total cpu time spent up to now is        0.9 secs

     total energy              =     -69.43505633 Ry
     estimated scf accuracy    <       0.00446490 Ry

     iteration #  2     ecut=    20.00 Ry     beta= 0.70
     Davidson diagonalization with overlap
     ethr =  4.46E-05,  avg # of iterations =  2.1

     negative rho (up, down):  2.734E-04 0.000E+00

     total cpu time spent up to now is        1.1 secs

     total energy              =     -69.43618859 Ry
     estimated scf accuracy    <       0.00039443 Ry

     iteration #  3     ecut=    20.00 Ry     beta= 0.70
     Davidson diagonalization with overlap
     ethr =  3.94E-06,  avg # of iterations =  2.1

     negative rho (up, down):  2.927E-04 0.000E+00

     total cpu time spent up to now is        1.3 secs

     total energy              =     -69.43625052 Ry
     estimated scf accuracy    <       0.00001283 Ry

     iteration #  4     ecut=    20.00 Ry     beta= 0.70
     Davidson diagonalization with overlap
     ethr =  1.28E-07,  avg # of iterations =  5.9

     negative rho (up, down):  2.929E-04 0.000E+00

     total cpu time spent up to now is        1.5 secs

     total energy              =     -69.43626457 Ry
     estimated scf accuracy    <       0.00000185 Ry

     iteration #  5     ecut=    20.00 Ry     beta= 0.70
     Davidson diagonalization with overlap
     ethr =  1.85E-08,  avg # of iterations =  3.2

     negative rho (up, down):  2.936E-04 0.000E+00

     total cpu time spent up to now is        1.7 secs

     total energy              =     -69.43626488 Ry
     estimated scf accuracy    <       0.00000014 Ry

     iteration #  6     ecut=    20.00 Ry     beta= 0.70
     Davidson diagonalization with overlap
     ethr =  1.38E-09,  avg # of iterations =  4.6

     negative rho (up, down):  2.937E-04 0.000E+00

     total cpu time spent up to now is        2.0 secs

     End of self-consistent calculation

          k = 0.0000 0.0000 0.0000 (   137 PWs)   bands (ev):

     9.0523   9.0523  15.7603  15.7603  15.7603  15.7603  16.7317  16.7317
    18.9201  18.9201

          k =-0.1111 0.1111-0.1111 (   141 PWs)   bands (ev):

     9.5906   9.5906  15.6795  15.6795  15.8979  15.8979  16.8674  16.8674
    18.7272  18.7272

          k =-0.2222 0.2222-0.2222 (   144 PWs)   bands (ev):

    10.9306  10.9306  15.5372  15.5372  16.0108  16.0108  17.1917  17.1917
    18.6503  18.6503

          k =-0.3333 0.3333-0.3333 (   144 PWs)   bands (ev):

    11.9533  11.9533  15.8013  15.8013  16.5699  16.5699  16.9130  16.9130
    19.5625  19.5625

          k =-0.4444 0.4444-0.4444 (   141 PWs)   bands (ev):

    12.0836  12.0836  15.5679  15.5679  16.5719  16.5719  18.9440  18.9440
    20.4303  20.4303

          k = 0.0000 0.2222 0.0000 (   141 PWs)   bands (ev):

     9.7728   9.7728  15.4730  15.4730  16.0895  16.0895  16.9741  16.9741
    18.4306  18.4306

          k =-0.1111 0.3333-0.1111 (   140 PWs)   bands (ev):

    10.8855  10.8855  15.1141  15.1141  16.2639  16.2639  17.3923  17.3923
    18.2417  18.2417

          k =-0.2222 0.4444-0.2222 (   142 PWs)   bands (ev):

    12.1718  12.1718  15.3441  15.3441  15.9468  15.9468  17.2182  17.2182
    19.3755  19.3755

          k =-0.3333 0.5556-0.3333 (   140 PWs)   bands (ev):

    12.5065  12.5065  15.5285  15.5285  16.6299  16.6299  17.1919  17.1919
    20.7284  20.7284

          k = 0.5556-0.3333 0.5556 (   138 PWs)   bands (ev):

    12.5146  12.5146  15.4371  15.4371  16.6076  16.6076  17.9757  17.9757
    20.6398  20.6398

          k = 0.4444-0.2222 0.4444 (   141 PWs)   bands (ev):

    12.5269  12.5269  15.6519  15.6519  16.5600  16.5600  16.8939  16.8939
    19.5811  19.5811

          k = 0.3333-0.1111 0.3333 (   140 PWs)   bands (ev):

    11.8463  11.8463  15.2567  15.2567  16.0823  16.0823  17.3048  17.3048
    18.3771  18.3771

          k = 0.2222-0.0000 0.2222 (   141 PWs)   bands (ev):

    10.4278  10.4278  15.3888  15.3888  16.1146  16.1146  17.1780  17.1780
    18.2905  18.2905

          k = 0.0000 0.4444 0.0000 (   133 PWs)   bands (ev):

    11.5816  11.5816  14.5041  14.5041  16.6018  16.6018  18.0513  18.0513
    18.0626  18.0626

          k =-0.1111 0.5556-0.1111 (   139 PWs)   bands (ev):

    12.6098  12.6098  14.1504  14.1504  16.3420  16.3420  18.2575  18.2575
    19.4003  19.4003

          k =-0.2222 0.6667-0.2222 (   138 PWs)   bands (ev):

    13.1235  13.1235  14.5814  14.5814  16.0723  16.0723  17.9832  17.9832
    20.8808  20.8808

          k = 0.6667-0.2222 0.6667 (   136 PWs)   bands (ev):

    13.3421  13.3421  14.8638  14.8638  16.4157  16.4157  17.6879  17.6879
    20.7289  20.7289

          k = 0.5556-0.1111 0.5556 (   135 PWs)   bands (ev):

    13.6543  13.6543  15.0961  15.0961  15.9736  15.9736  17.4966  17.4966
    19.6142  19.6142

          k = 0.4444 0.0000 0.4444 (   140 PWs)   bands (ev):

    13.2944  13.2944  14.9542  14.9542  15.7342  15.7342  17.5535  17.5535
    18.4425  18.4425

          k = 0.0000 0.6667 0.0000 (   133 PWs)   bands (ev):

    12.6261  12.6261  13.4772  13.4772  17.7899  17.7899  19.4835  19.4835
    19.6065  19.6065

          k =-0.1111 0.7778-0.1111 (   135 PWs)   bands (ev):

    12.7394  12.7394  13.3486  13.3486  17.9842  17.9842  19.6013  19.6013
    20.9629  20.9629

          k = 0.7778-0.1111 0.7778 (   133 PWs)   bands (ev):

    13.0678  13.0678  13.9150  13.9150  17.2643  17.2643  19.1134  19.1134
    20.9717  20.9717

          k = 0.6667-0.0000 0.6667 (   136 PWs)   bands (ev):

    13.6616  13.6616  14.7322  14.7322  16.1769  16.1769  18.4172  18.4172
    20.1419  20.1419

          k = 0.0000 0.8889 0.0000 (   133 PWs)   bands (ev):

    12.2891  12.2891  12.8689  12.8689  20.4699  20.4699  20.5800  20.5800
    21.4351  21.4351

          k = 0.8889 0.0000 0.8889 (   134 PWs)   bands (ev):

    12.4642  12.4642  13.0453  13.0453  19.3071  19.3071  20.2789  20.2789
    21.4205  21.4205

          k =-0.2222 0.4444 0.0000 (   137 PWs)   bands (ev):

    12.1015  12.1015  14.6962  14.6962  16.1191  16.1191  17.9234  17.9234
    18.2225  18.2225

          k =-0.3333 0.5556-0.1111 (   140 PWs)   bands (ev):

    13.1704  13.1704  15.0095  15.0095  15.5535  15.5535  17.7139  17.7139
    19.4101  19.4101

          k = 0.5556-0.3333 0.7778 (   136 PWs)   bands (ev):

    13.2651  13.2651  15.0239  15.0239  16.3615  16.3615  17.4624  17.4624
    20.4856  20.4856

          k =-0.2222 0.6667 0.0000 (   137 PWs)   bands (ev):

    13.2084  13.2084  13.8582  13.8582  16.3215  16.3215  19.2818  19.2818
    19.6049  19.6049

          k = 0.6667-0.2222 0.8889 (   138 PWs)   bands (ev):

    13.5391  13.5391  14.2608  14.2608  16.0627  16.0627  18.7975  18.7975
    20.6681  20.6681

          k = 0.5556-0.1111 0.7778 (   137 PWs)   bands (ev):

    13.9694  13.9694  14.5593  14.5593  15.8407  15.8407  18.2753  18.2753
    20.5521  20.5521

          k = 0.4444 0.0000 0.6667 (   136 PWs)   bands (ev):

    14.4136  14.4136  14.7295  14.7295  14.9597  14.9597  18.2956  18.2956
    19.6661  19.6661

          k = 0.7778-0.1111 1.0000 (   135 PWs)   bands (ev):

    12.8278  12.8278  13.3424  13.3424  17.9712  17.9712  19.9435  19.9435
    21.2104  21.2104

          k = 0.6667-0.0000 0.8889 (   132 PWs)   bands (ev):

    13.3071  13.3071  14.0021  14.0021  16.8786  16.8786  19.0568  19.0568
    21.1858  21.1858

          k = 0.5556-0.1111 1.0000 (   135 PWs)   bands (ev):

    13.8504  13.8504  14.7116  14.7116  15.5341  15.5341  18.5731  18.5731
    21.1571  21.1571

     highest occupied level (ev):    21.4351

!    total energy              =     -69.43626498 Ry
     estimated scf accuracy    <          5.4E-09 Ry

     The total energy is the sum of the following terms:
     one-electron contribution =      20.30685545 Ry
     hartree contribution      =       3.17681837 Ry
     xc contribution           =     -28.70618421 Ry
     ewald contribution        =     -64.21375458 Ry

     convergence has been achieved in   6 iterations

     negative rho (up, down):  2.937E-04 0.000E+00

     Forces acting on atoms (cartesian axes, Ry/au):

     atom    1 type  1   force =     0.00000000    0.00000000    0.00000000

     Total force =     0.000000     Total SCF correction =     0.000000


     Computing stress (Cartesian axis) and pressure


     negative rho (up, down):  2.937E-04 0.000E+00
          total   stress  (Ry/bohr**3)                   (kbar)     P=      540.96
   0.00367734  -0.00000000   0.00000000          540.96       -0.00        0.00
  -0.00000000   0.00367734  -0.00000000           -0.00      540.96       -0.00
   0.00000000  -0.00000000   0.00367734            0.00       -0.00      540.96


     Writing all to output data dir ./platinum.save/ :
     XML data file, charge density, pseudopotentials, collected wavefunctions

     init_run     :      0.23s CPU      0.27s WALL (       1 calls)
     electrons    :      1.39s CPU      1.59s WALL (       1 calls)
     forces       :      0.03s CPU      0.03s WALL (       1 calls)
     stress       :      0.13s CPU      0.13s WALL (       1 calls)

     Called by init_run:
     wfcinit      :      0.05s CPU      0.07s WALL (       1 calls)
     potinit      :      0.01s CPU      0.01s WALL (       1 calls)
     hinit0       :      0.16s CPU      0.17s WALL (       1 calls)

     Called by electrons:
     c_bands      :      1.09s CPU      1.28s WALL (       7 calls)
     sum_band     :      0.23s CPU      0.25s WALL (       7 calls)
     v_of_rho     :      0.00s CPU      0.00s WALL (       7 calls)
     newd         :      0.07s CPU      0.07s WALL (       7 calls)
     mix_rho      :      0.00s CPU      0.00s WALL (       7 calls)

     Called by c_bands:
     init_us_2    :      0.02s CPU      0.02s WALL (     595 calls)
     cegterg      :      1.03s CPU      1.21s WALL (     245 calls)

     Called by *egterg:
     cdiaghg      :      0.07s CPU      0.08s WALL (    1187 calls)
     h_psi        :      0.63s CPU      0.75s WALL (    1257 calls)
     s_psi        :      0.09s CPU      0.11s WALL (    1257 calls)
     g_psi        :      0.01s CPU      0.01s WALL (     977 calls)

     Called by h_psi:
     h_psi:calbec :      0.07s CPU      0.09s WALL (    1257 calls)
     vloc_psi     :      0.46s CPU      0.54s WALL (    1257 calls)
     add_vuspsi   :      0.09s CPU      0.11s WALL (    1257 calls)

     General routines
     calbec       :      0.10s CPU      0.12s WALL (    1677 calls)
     fft          :      0.02s CPU      0.03s WALL (      79 calls)
     ffts         :      0.00s CPU      0.00s WALL (      28 calls)
     fftw         :      0.34s CPU      0.40s WALL (   41716 calls)

     Parallel routines

     PWSCF        :      1.89s CPU      2.13s WALL


   This run was terminated on:  22: 0:13   4Nov2024            

=------------------------------------------------------------------------------=
   JOB DONE.
=------------------------------------------------------------------------------=
