
     Program PWSCF v.7.3.1 starts on  4Nov2024 at 21:59:49 

     This program is part of the open-source Quantum ESPRESSO suite
     for quantum simulation of materials; please cite
         "P. Giannozzi et al., J. Phys.:Condens. Matter 21 395502 (2009);
         "P. Giannozzi et al., J. Phys.:Condens. Matter 29 465901 (2017);
         "P. Giannozzi et al., J. Chem. Phys. 152 154105 (2020);
          URL http://www.quantum-espresso.org", 
     in publications or presentations arising from this work. More details at
     http://www.quantum-espresso.org/quote

     Parallel version (MPI), running on     1 processors

     MPI processes distributed on     1 nodes
     11967 MiB available memory on the printing compute node when the environment starts

     Waiting for input...
     Reading input from standard input

     Current dimensions of program PWSCF are:
     Max number of different atomic species (ntypx) = 10
     Max number of k-points (npk) =  40000
     Max angular momentum in pseudopotentials (lmaxx) =  4

     Subspace diagonalization in iterative solution of the eigenvalue problem:
     a serial algorithm will be used


     G-vector sticks info
     --------------------
     sticks:   dense  smooth     PW     G-vecs:    dense   smooth      PW
     Sum         139     139     55                 1037     1037     259

     Using Slab Decomposition



     bravais-lattice index     =            2
     lattice parameter (alat)  =       7.0200  a.u.
     unit-cell volume          =      86.4871 (a.u.)^3
     number of atoms/cell      =            1
     number of atomic types    =            1
     number of electrons       =        10.00
     number of Kohn-Sham states=           10
     kinetic-energy cutoff     =      20.0000  Ry
     charge density cutoff     =      80.0000  Ry
     scf convergence threshold =      1.0E-08
     mixing beta               =       0.7000
     number of iterations used =            8  plain     mixing
     Exchange-correlation=  SLA  PZ   NOGX NOGC
                           (   1   1   0   0   0   0   0)
     Non magnetic calculation with spin-orbit


     celldm(1)=   7.020000  celldm(2)=   0.000000  celldm(3)=   0.000000
     celldm(4)=   0.000000  celldm(5)=   0.000000  celldm(6)=   0.000000

     crystal axes: (cart. coord. in units of alat)
               a(1) = (  -0.500000   0.000000   0.500000 )  
               a(2) = (   0.000000   0.500000   0.500000 )  
               a(3) = (  -0.500000   0.500000   0.000000 )  

     reciprocal axes: (cart. coord. in units 2 pi/alat)
               b(1) = ( -1.000000 -1.000000  1.000000 )  
               b(2) = (  1.000000  1.000000  1.000000 )  
               b(3) = ( -1.000000  1.000000 -1.000000 )  


     PseudoPot. # 1 for Pt read from file:
     /home/dashlander/Desktop/Sem7/CPD/Assignment_3/pseudo/Pt.rel-pz-n-rrkjus.UPF
     MD5 check sum: 4baafe8ec1942611396c7a5466f52249
     Pseudo is Ultrasoft + core correction, Zval = 10.0
     Generated by new atomic code, or converted to UPF format
     Using radial grid of 1277 points,  6 beta functions with: 
                l(1) =   2
                l(2) =   2
                l(3) =   2
                l(4) =   2
                l(5) =   1
                l(6) =   1
     Q(r) pseudized with 0 coefficients 


     atomic species   valence    mass     pseudopotential
     Pt               10.00   195.08400     Pt( 1.00)

     48 Sym. Ops., with inversion, found



   Cartesian axes

     site n.     atom                  positions (alat units)
         1        Pt     tau(   1) = (   0.0000000   0.0000000   0.0000000  )

     number of k points=    35
                       cart. coord. in units 2pi/alat
        k(    1) = (   0.0000000   0.0000000   0.0000000), wk =   0.0013717
        k(    2) = (  -0.1111111   0.1111111  -0.1111111), wk =   0.0109739
        k(    3) = (  -0.2222222   0.2222222  -0.2222222), wk =   0.0109739
        k(    4) = (  -0.3333333   0.3333333  -0.3333333), wk =   0.0109739
        k(    5) = (  -0.4444444   0.4444444  -0.4444444), wk =   0.0109739
        k(    6) = (   0.0000000   0.2222222   0.0000000), wk =   0.0082305
        k(    7) = (  -0.1111111   0.3333333  -0.1111111), wk =   0.0329218
        k(    8) = (  -0.2222222   0.4444444  -0.2222222), wk =   0.0329218
        k(    9) = (  -0.3333333   0.5555556  -0.3333333), wk =   0.0329218
        k(   10) = (   0.5555556  -0.3333333   0.5555556), wk =   0.0329218
        k(   11) = (   0.4444444  -0.2222222   0.4444444), wk =   0.0329218
        k(   12) = (   0.3333333  -0.1111111   0.3333333), wk =   0.0329218
        k(   13) = (   0.2222222  -0.0000000   0.2222222), wk =   0.0164609
        k(   14) = (   0.0000000   0.4444444   0.0000000), wk =   0.0082305
        k(   15) = (  -0.1111111   0.5555556  -0.1111111), wk =   0.0329218
        k(   16) = (  -0.2222222   0.6666667  -0.2222222), wk =   0.0329218
        k(   17) = (   0.6666667  -0.2222222   0.6666667), wk =   0.0329218
        k(   18) = (   0.5555556  -0.1111111   0.5555556), wk =   0.0329218
        k(   19) = (   0.4444444   0.0000000   0.4444444), wk =   0.0164609
        k(   20) = (   0.0000000   0.6666667   0.0000000), wk =   0.0082305
        k(   21) = (  -0.1111111   0.7777778  -0.1111111), wk =   0.0329218
        k(   22) = (   0.7777778  -0.1111111   0.7777778), wk =   0.0329218
        k(   23) = (   0.6666667  -0.0000000   0.6666667), wk =   0.0164609
        k(   24) = (   0.0000000   0.8888889   0.0000000), wk =   0.0082305
        k(   25) = (   0.8888889   0.0000000   0.8888889), wk =   0.0164609
        k(   26) = (  -0.2222222   0.4444444   0.0000000), wk =   0.0329218
        k(   27) = (  -0.3333333   0.5555556  -0.1111111), wk =   0.0658436
        k(   28) = (   0.5555556  -0.3333333   0.7777778), wk =   0.0658436
        k(   29) = (  -0.2222222   0.6666667   0.0000000), wk =   0.0329218
        k(   30) = (   0.6666667  -0.2222222   0.8888889), wk =   0.0658436
        k(   31) = (   0.5555556  -0.1111111   0.7777778), wk =   0.0658436
        k(   32) = (   0.4444444   0.0000000   0.6666667), wk =   0.0329218
        k(   33) = (   0.7777778  -0.1111111   1.0000000), wk =   0.0329218
        k(   34) = (   0.6666667  -0.0000000   0.8888889), wk =   0.0329218
        k(   35) = (   0.5555556  -0.1111111   1.0000000), wk =   0.0329218

     Dense  grid:     1037 G-vectors     FFT dimensions: (  15,  15,  15)

     Estimated max dynamical RAM per process >      10.29 MB

     Check: negative core charge=   -0.000026

     Initial potential from superposition of free atoms

     starting charge       9.9999, renormalised to      10.0000

     negative rho (up, down):  9.346E-05 0.000E+00
     Starting wfcs are   12 randomized atomic wfcs

     total cpu time spent up to now is        0.4 secs

     Self-consistent Calculation

     iteration #  1     ecut=    20.00 Ry     beta= 0.70
     Davidson diagonalization with overlap
     ethr =  1.00E-02,  avg # of iterations =  2.3

     Threshold (ethr) on eigenvalues was too large:
     Diagonalizing with lowered threshold

     Davidson diagonalization with overlap
     c_bands:  2 eigenvalues not converged
     ethr =  1.13E-05,  avg # of iterations =  7.9

     negative rho (up, down):  1.989E-04 0.000E+00

     total cpu time spent up to now is        0.9 secs

     total energy              =     -69.41365534 Ry
     estimated scf accuracy    <       0.00431044 Ry

     iteration #  2     ecut=    20.00 Ry     beta= 0.70
     Davidson diagonalization with overlap
     ethr =  4.31E-05,  avg # of iterations =  2.3

     negative rho (up, down):  2.289E-04 0.000E+00

     total cpu time spent up to now is        1.1 secs

     total energy              =     -69.41471935 Ry
     estimated scf accuracy    <       0.00032151 Ry

     iteration #  3     ecut=    20.00 Ry     beta= 0.70
     Davidson diagonalization with overlap
     ethr =  3.22E-06,  avg # of iterations =  2.2

     negative rho (up, down):  2.483E-04 0.000E+00

     total cpu time spent up to now is        1.3 secs

     total energy              =     -69.41476987 Ry
     estimated scf accuracy    <       0.00001136 Ry

     iteration #  4     ecut=    20.00 Ry     beta= 0.70
     Davidson diagonalization with overlap
     ethr =  1.14E-07,  avg # of iterations =  6.0

     negative rho (up, down):  2.487E-04 0.000E+00

     total cpu time spent up to now is        1.5 secs

     total energy              =     -69.41478151 Ry
     estimated scf accuracy    <       0.00000128 Ry

     iteration #  5     ecut=    20.00 Ry     beta= 0.70
     Davidson diagonalization with overlap
     ethr =  1.28E-08,  avg # of iterations =  3.0

     negative rho (up, down):  2.496E-04 0.000E+00

     total cpu time spent up to now is        1.7 secs

     total energy              =     -69.41478175 Ry
     estimated scf accuracy    <       0.00000007 Ry

     iteration #  6     ecut=    20.00 Ry     beta= 0.70
     Davidson diagonalization with overlap
     ethr =  6.78E-10,  avg # of iterations =  4.8

     negative rho (up, down):  2.496E-04 0.000E+00

     total cpu time spent up to now is        1.9 secs

     End of self-consistent calculation

          k = 0.0000 0.0000 0.0000 (   137 PWs)   bands (ev):

     9.9159   9.9159  16.8927  16.8927  16.8927  16.8927  17.8555  17.8555
    20.2519  20.2519

          k =-0.1111 0.1111-0.1111 (   134 PWs)   bands (ev):

    10.4828  10.4828  16.7965  16.7965  17.0466  17.0466  18.0043  18.0043
    20.0449  20.0449

          k =-0.2222 0.2222-0.2222 (   138 PWs)   bands (ev):

    11.8750  11.8750  16.6344  16.6344  17.1737  17.1737  18.3503  18.3503
    19.9761  19.9761

          k =-0.3333 0.3333-0.3333 (   138 PWs)   bands (ev):

    12.8791  12.8791  16.9404  16.9404  17.7570  17.7570  18.0468  18.0468
    20.9733  20.9733

          k =-0.4444 0.4444-0.4444 (   135 PWs)   bands (ev):

    12.9703  12.9703  16.6826  16.6826  17.6825  17.6825  20.2244  20.2244
    21.9273  21.9273

          k = 0.0000 0.2222 0.0000 (   137 PWs)   bands (ev):

    10.6742  10.6742  16.5681  16.5681  17.2552  17.2552  18.1265  18.1265
    19.7059  19.7059

          k =-0.1111 0.3333-0.1111 (   132 PWs)   bands (ev):

    11.8368  11.8368  16.1696  16.1696  17.4466  17.4466  18.5761  18.5761
    19.5087  19.5087

          k =-0.2222 0.4444-0.2222 (   136 PWs)   bands (ev):

    13.1352  13.1352  16.4338  16.4338  17.0827  17.0827  18.3859  18.3859
    20.7619  20.7619

          k =-0.3333 0.5556-0.3333 (   132 PWs)   bands (ev):

    13.4256  13.4256  16.6258  16.6258  17.7824  17.7824  18.3745  18.3745
    22.2448  22.2448

          k = 0.5556-0.3333 0.5556 (   129 PWs)   bands (ev):

    13.4249  13.4249  16.5271  16.5271  17.7348  17.7348  19.2159  19.2159
    22.1383  22.1383

          k = 0.4444-0.2222 0.4444 (   133 PWs)   bands (ev):

    13.4645  13.4645  16.7696  16.7696  17.7279  17.7279  18.0375  18.0375
    20.9753  20.9753

          k = 0.3333-0.1111 0.3333 (   136 PWs)   bands (ev):

    12.8225  12.8225  16.3315  16.3315  17.2411  17.2411  18.4756  18.4756
    19.6605  19.6605

          k = 0.2222-0.0000 0.2222 (   133 PWs)   bands (ev):

    11.3610  11.3610  16.4710  16.4710  17.2854  17.2854  18.3432  18.3432
    19.5615  19.5615

          k = 0.0000 0.4444 0.0000 (   133 PWs)   bands (ev):

    12.5518  12.5518  15.5025  15.5025  17.8133  17.8133  19.2856  19.2856
    19.3226  19.3226

          k =-0.1111 0.5556-0.1111 (   132 PWs)   bands (ev):

    13.5851  13.5851  15.1234  15.1234  17.5116  17.5116  19.5314  19.5314
    20.7898  20.7898

          k =-0.2222 0.6667-0.2222 (   130 PWs)   bands (ev):

    14.0620  14.0620  15.5918  15.5918  17.2197  17.2197  19.2316  19.2316
    22.4128  22.4128

          k = 0.6667-0.2222 0.6667 (   127 PWs)   bands (ev):

    14.2871  14.2871  15.8897  15.8897  17.5778  17.5778  18.9061  18.9061
    22.2308  22.2308

          k = 0.5556-0.1111 0.5556 (   131 PWs)   bands (ev):

    14.6419  14.6419  16.1452  16.1452  17.0939  17.0939  18.7085  18.7085
    21.0067  21.0067

          k = 0.4444 0.0000 0.4444 (   135 PWs)   bands (ev):

    14.3250  14.3250  16.0020  16.0020  16.8317  16.8317  18.7720  18.7720
    19.7213  19.7213

          k = 0.0000 0.6667 0.0000 (   129 PWs)   bands (ev):

    13.5410  13.5410  14.3927  14.3927  19.0816  19.0816  20.8680  20.8680
    21.0232  21.0232

          k =-0.1111 0.7778-0.1111 (   129 PWs)   bands (ev):

    13.6238  13.6238  14.2584  14.2584  19.2694  19.2694  21.0021  21.0021
    22.4932  22.4932

          k = 0.7778-0.1111 0.7778 (   128 PWs)   bands (ev):

    13.9592  13.9592  14.8756  14.8756  18.4856  18.4856  20.4687  20.4687
    22.4890  22.4890

          k = 0.6667-0.0000 0.6667 (   126 PWs)   bands (ev):

    14.6012  14.6012  15.7659  15.7659  17.3097  17.3097  19.7147  19.7147
    21.5791  21.5791

          k = 0.0000 0.8889 0.0000 (   121 PWs)   bands (ev):

    13.1294  13.1294  13.7394  13.7394  21.9798  21.9798  22.0780  22.0780
    22.8881  22.8881

          k = 0.8889 0.0000 0.8889 (   122 PWs)   bands (ev):

    13.3114  13.3114  13.9326  13.9326  20.6750  20.6750  21.7571  21.7571
    22.9666  22.9666

          k =-0.2222 0.4444 0.0000 (   135 PWs)   bands (ev):

    13.0960  13.0960  15.7140  15.7140  17.2671  17.2671  19.1615  19.1615
    19.4950  19.4950

          k =-0.3333 0.5556-0.1111 (   132 PWs)   bands (ev):

    14.1597  14.1597  16.0700  16.0700  16.6361  16.6361  18.9411  18.9411
    20.7880  20.7880

          k = 0.5556-0.3333 0.7778 (   127 PWs)   bands (ev):

    14.2217  14.2217  16.0587  16.0587  17.5201  17.5201  18.6582  18.6582
    21.9674  21.9674

          k =-0.2222 0.6667 0.0000 (   132 PWs)   bands (ev):

    14.1616  14.1616  14.8084  14.8084  17.4853  17.4853  20.6538  20.6538
    20.9993  20.9993

          k = 0.6667-0.2222 0.8889 (   129 PWs)   bands (ev):

    14.4784  14.4784  15.2460  15.2460  17.2003  17.2003  20.1182  20.1182
    22.1643  22.1643

          k = 0.5556-0.1111 0.7778 (   129 PWs)   bands (ev):

    14.9366  14.9366  15.5737  15.5737  16.9534  16.9534  19.5485  19.5485
    22.0347  22.0347

          k = 0.4444 0.0000 0.6667 (   130 PWs)   bands (ev):

    15.4673  15.4673  15.7518  15.7518  15.9831  15.9831  19.5756  19.5756
    21.0644  21.0644

          k = 0.7778-0.1111 1.0000 (   127 PWs)   bands (ev):

    13.7035  13.7035  14.2543  14.2543  19.2437  19.2437  21.3769  21.3769
    22.7493  22.7493

          k = 0.6667-0.0000 0.8889 (   129 PWs)   bands (ev):

    14.2109  14.2109  14.9719  14.9719  18.0680  18.0680  20.4010  20.4010
    22.7229  22.7229

          k = 0.5556-0.1111 1.0000 (   125 PWs)   bands (ev):

    14.7930  14.7930  15.7418  15.7418  16.6233  16.6233  19.8691  19.8691
    22.6981  22.6981

     highest occupied level (ev):    22.9666

!    total energy              =     -69.41478181 Ry
     estimated scf accuracy    <          6.3E-09 Ry

     The total energy is the sum of the following terms:
     one-electron contribution =      21.75347689 Ry
     hartree contribution      =       2.92957226 Ry
     xc contribution           =     -28.78640537 Ry
     ewald contribution        =     -65.31142559 Ry

     convergence has been achieved in   6 iterations

     negative rho (up, down):  2.496E-04 0.000E+00

     Forces acting on atoms (cartesian axes, Ry/au):

     atom    1 type  1   force =     0.00000000    0.00000000    0.00000000

     Total force =     0.000000     Total SCF correction =     0.000000


     Computing stress (Cartesian axis) and pressure


     negative rho (up, down):  2.496E-04 0.000E+00
          total   stress  (Ry/bohr**3)                   (kbar)     P=      848.21
   0.00576603  -0.00000000  -0.00000000          848.21       -0.00       -0.00
  -0.00000000   0.00576603   0.00000000           -0.00      848.21        0.00
  -0.00000000  -0.00000000   0.00576603           -0.00       -0.00      848.21


     Writing all to output data dir ./platinum.save/ :
     XML data file, charge density, pseudopotentials, collected wavefunctions

     init_run     :      0.24s CPU      0.26s WALL (       1 calls)
     electrons    :      1.39s CPU      1.57s WALL (       1 calls)
     forces       :      0.03s CPU      0.03s WALL (       1 calls)
     stress       :      0.13s CPU      0.13s WALL (       1 calls)

     Called by init_run:
     wfcinit      :      0.06s CPU      0.07s WALL (       1 calls)
     potinit      :      0.01s CPU      0.01s WALL (       1 calls)
     hinit0       :      0.15s CPU      0.17s WALL (       1 calls)

     Called by electrons:
     c_bands      :      1.10s CPU      1.26s WALL (       7 calls)
     sum_band     :      0.22s CPU      0.24s WALL (       7 calls)
     v_of_rho     :      0.00s CPU      0.00s WALL (       7 calls)
     newd         :      0.07s CPU      0.07s WALL (       7 calls)
     mix_rho      :      0.00s CPU      0.00s WALL (       7 calls)

     Called by c_bands:
     init_us_2    :      0.02s CPU      0.02s WALL (     595 calls)
     cegterg      :      1.05s CPU      1.20s WALL (     245 calls)

     Called by *egterg:
     cdiaghg      :      0.07s CPU      0.08s WALL (    1212 calls)
     h_psi        :      0.65s CPU      0.75s WALL (    1282 calls)
     s_psi        :      0.09s CPU      0.11s WALL (    1282 calls)
     g_psi        :      0.01s CPU      0.01s WALL (    1002 calls)

     Called by h_psi:
     h_psi:calbec :      0.07s CPU      0.08s WALL (    1282 calls)
     vloc_psi     :      0.47s CPU      0.54s WALL (    1282 calls)
     add_vuspsi   :      0.09s CPU      0.11s WALL (    1282 calls)

     General routines
     calbec       :      0.10s CPU      0.11s WALL (    1702 calls)
     fft          :      0.01s CPU      0.03s WALL (      79 calls)
     ffts         :      0.00s CPU      0.00s WALL (      28 calls)
     fftw         :      0.36s CPU      0.41s WALL (   42152 calls)

     Parallel routines

     PWSCF        :      1.88s CPU      2.10s WALL


   This run was terminated on:  21:59:51   4Nov2024            

=------------------------------------------------------------------------------=
   JOB DONE.
=------------------------------------------------------------------------------=
