LAMMPS (29 Aug 2024)
units                  real
atom_style	       full
bond_style	       harmonic
angle_style	       harmonic
boundary	       p p p

neighbor 2.0 bin
neigh_modify every 1 delay 0 check yes

# ============= read data and parameters files

pair_style            lj/cut 10.0
pair_modify           shift yes mix arithmetic

read_data             equilb_200ps.data
Reading data file ...
  orthogonal box = (-0.1495 -0.193001 -38.75) to (32.8505 32.806999 41.25)
  1 by 2 by 4 MPI processor grid
  reading atoms ...
  4369 atoms
  reading velocities ...
  4369 velocities
  scanning bonds ...
  4 = max bonds/atom
  scanning angles ...
  6 = max angles/atom
  scanning dihedrals ...
  8 = max dihedrals/atom
  scanning impropers ...
  2 = max impropers/atom
  orthogonal box = (-0.1495 -0.193001 -38.75) to (32.8505 32.806999 41.25)
  1 by 2 by 4 MPI processor grid
  reading bonds ...
  3937 bonds
  reading angles ...
  4687 angles
  reading dihedrals ...
  6951 dihedrals
  reading impropers ...
  1152 impropers
Finding 1-2 1-3 1-4 neighbors ...
  special bond factors lj:    0        0        0       
  special bond factors coul:  0        0        0       
     4 = max # of 1-2 neighbors
     6 = max # of 1-3 neighbors
    18 = max # of 1-4 neighbors
    18 = max # of special neighbors
  special bonds CPU = 0.001 seconds
  read_data CPU = 0.092 seconds

pair_coeff  1  1      0.0859  3.3997
pair_coeff  2  2      0.0659  3.5000
pair_coeff  3  3      0.0859  3.3997
pair_coeff  4  4      0.0859  3.3997
pair_coeff  5  5      0.0299  2.5000
pair_coeff  6  6      0.0000  1.0000
pair_coeff  7  7      0.1521  3.1507

bond_coeff     1      938.0    1.42
bond_coeff     2      661.2    1.10
bond_coeff     3      938.0    1.42
bond_coeff     4      938.0    1.42
bond_coeff     5      450.0    0.9572

angle_coeff    1      126      120.0
angle_coeff    2      126      120.0
angle_coeff    3      126      120.0
angle_coeff    4      78.8     109.5
angle_coeff    5      55.0     104.52


group  water     type 6  7
2985 atoms in group water
group  memb      type 1
438 atoms in group memb
group  CG1       type 3
448 atoms in group CG1
group  CG2       type 4
448 atoms in group CG2
group  CG3       type 3 4
896 atoms in group CG3


compute 9 all pe/atom

dump dump_1 all custom 1000 dump.lammpstrj id type x y z

timestep 1.0
thermo_style custom step time cpu temp pe ke etotal press vol
thermo 100

fix                    myshk1  water shake 1.0e-5 200 0 b 5 a 5
Finding SHAKE clusters ...
       0 = # of size 2 clusters
       0 = # of size 3 clusters
       0 = # of size 4 clusters
     995 = # of frozen angles
  find clusters CPU = 0.001 seconds

fix                    freeze memb setforce 0.0 0.0 0.0

fix                    pistonkeep CG3  setforce  0.0   0.0    NULL
fix                    myforce1   CG1  aveforce  NULL  NULL  -1.439     #P=250 bars
fix                    freeze1    CG2  setforce 0.0 0.0 0.0

fix                    mynvt  all nvt temp 300 300 10.0
run                    1000000

CITE-CITE-CITE-CITE-CITE-CITE-CITE-CITE-CITE-CITE-CITE-CITE-CITE

Your simulation uses code contributions which should be cited:

- Type Label Framework: https://doi.org/10.1021/acs.jpcb.3c08419

@Article{Gissinger24,
 author = {Jacob R. Gissinger, Ilia Nikiforov, Yaser Afshar, Brendon Waters, Moon-ki Choi, Daniel S. Karls, Alexander Stukowski, Wonpil Im, Hendrik Heinz, Axel Kohlmeyer, and Ellad B. Tadmor},
 title = {Type Label Framework for Bonded Force Fields in LAMMPS},
 journal = {J. Phys. Chem. B},
 year =    2024,
 volume =  128,
 number =  13,
 pages =   {3282–-3297}
}

CITE-CITE-CITE-CITE-CITE-CITE-CITE-CITE-CITE-CITE-CITE-CITE-CITE

Generated 21 of 21 mixed pair_coeff terms from arithmetic mixing rule
WARNING: Dihedrals are defined but no dihedral style is set (../force.cpp:207)
WARNING: Likewise 1-4 special neighbor interactions != 1.0 (../force.cpp:209)
WARNING: Impropers are defined but no improper style is set (../force.cpp:212)
Neighbor list info ...
  update: every = 1 steps, delay = 0 steps, check = yes
  max neighbors/atom: 2000, page size: 100000
  master list distance cutoff = 12
  ghost atom cutoff = 12
  binsize = 6, bins = 6 6 14
  1 neighbor lists, perpetual/occasional/extra = 1 0 0
  (1) pair lj/cut, perpetual
      attributes: half, newton on
      pair build: half/bin/newton
      stencil: half/bin/3d
      bin: standard
Per MPI rank memory allocation (min/avg/max) = 13.72 | 14.32 | 15.25 Mbytes
   Step          Time           CPU            Temp          PotEng         KinEng         TotEng         Press          Volume    
         0   0              0              295.05312      8522.1758      2966.5444      11488.72       61316.448      87120        
       100   100            0.57593705     304.2942       8499.7084      3059.4568      11559.165      61382.838      87120        
       200   200            1.1605303      298.9456       8566.9082      3005.6805      11572.589      61810.134      87120        
       300   300            1.7458901      297.59087      8603.8286      2992.0596      11595.888      62201.17       87120        
       400   400            2.3431659      298.4129       8607.3464      3000.3245      11607.671      62422.956      87120        
       500   500            2.9669501      313.8252       8702.3128      3155.2841      11857.597      63042.41       87120        
       600   600            3.6435084      293.01845      8724.4473      2946.0872      11670.535      63236.857      87120        
       700   700            4.3431164      300.26186      8767.2486      3018.9145      11786.163      63687.959      87120        
       800   800            5.1087423      300.76319      8810.793       3023.955       11834.748      64114.995      87120        
       900   900            5.9177907      302.86192      8919.0954      3045.0563      11964.152      64802.722      87120        
      1000   1000           6.7647382      300.26242      8918.7479      3018.9201      11937.668      65084.809      87120        
      1100   1100           7.6658405      300.77258      9098.7154      3024.0494      12122.765      66140.426      87120        
      1200   1200           8.5771187      298.55474      9354.3119      3001.7507      12356.063      67386.177      87120        
      1300   1300           9.5499984      301.18683      9718.2719      3028.2144      12746.486      69065.695      87120        
      1400   1400           10.607679      297.57292      10141.616      2991.8791      13133.496      70939.051      87120        
      1500   1500           11.679498      300.12295      10729.785      3017.5179      13747.303      73345.586      87120        
      1600   1600           12.798723      290.8432       11242.071      2924.2167      14166.287      75410.673      87120        
      1700   1700           13.954364      299.70847      11628.705      3013.3506      14642.055      76961.239      87120        
      1800   1800           15.146195      293.80743      11695.187      2954.0199      14649.207      77127.892      87120        
      1900   1900           16.325608      294.98063      11375.544      2965.8156      14341.36       75881.145      87120        
      2000   2000           17.479523      298.83485      10909.776      3004.567       13914.343      74050.653      87120        
      2100   2100           18.569772      301.12703      10402.204      3027.6132      13429.817      72027.223      87120        
      2200   2200           19.669261      301.48537      10012.373      3031.216       13043.589      70350.089      87120        
      2300   2300           20.767675      299.76464      9686.4837      3013.9153      12700.399      68818.795      87120        
      2400   2400           21.808585      296.30789      9360.8302      2979.1602      12339.99       67297.424      87120        
      2500   2500           22.822688      304.20039      9244.4209      3058.5136      12302.934      66587.993      87120        
      2600   2600           23.777973      302.96739      9074.1576      3046.1167      12120.274      65744.721      87120        
      2700   2700           24.711557      299.85489      8981.7199      3014.8227      11996.543      65177.087      87120        
      2800   2800           25.61804       303.28176      8983.701       3049.2774      12032.978      64940.282      87120        
      2900   2900           26.684064      297.51675      8887.4329      2991.3144      11878.747      64379.583      87120        
      3000   3000           27.758845      305.67813      8881.7831      3073.3712      11955.154      64174.701      87120        
      3100   3100           28.73729       290.18088      8895.1364      2917.5575      11812.694      64163.803      87120        
      3200   3200           29.615045      300.71974      8845.7293      3023.5181      11869.247      64023.874      87120        
      3300   3300           30.51367       299.59821      8875.2422      3012.2419      11887.484      64192.155      87120        
      3400   3400           31.387012      302.93697      8893.9618      3045.8107      11939.773      64328.754      87120        
      3500   3500           32.226269      301.59574      8909.2831      3032.3257      11941.609      64444.238      87120        
      3600   3600           33.083228      295.04797      9014.5152      2966.4927      11981.008      64889.84       87120        
      3700   3700           33.97776       303.4789       9067.7412      3051.2595      12119.001      65238.438      87120        
      3800   3800           34.909237      289.7225       9132.1039      2912.9489      12045.053      65644.832      87120        
      3900   3900           35.92208       305.24515      9242.2615      3069.0179      12311.279      66332.8        87120        
      4000   4000           36.95347       297.5773       9363.5436      2991.9232      12355.467      66990.036      87120        
      4100   4100           38.04073       295.84935      9647.5584      2974.5499      12622.108      68299.569      87120        
      4200   4200           39.166513      299.7959       9770.6779      3014.2296      12784.908      68902.281      87120        
      4300   4300           40.249758      301.98992      9962.3076      3036.2889      12998.597      69803.165      87120        
      4400   4400           41.387883      298.22155      10179.349      2998.4007      13177.75       70764.403      87120        
      4500   4500           42.515136      295.06062      10426.488      2966.6198      13393.107      71822.936      87120        
      4600   4600           43.614946      305.38267      10568.035      3070.4005      13638.435      72411.755      87120        
      4700   4700           44.753164      301.93147      10540.438      3035.7012      13576.139      72272.728      87120        
      4800   4800           45.873119      303.56612      10533.593      3052.1364      13585.729      72257.16       87120        
      4900   4900           46.980699      295.27539      10339.102      2968.7792      13307.881      71498.182      87120        
      5000   5000           48.105472      302.93399      10140.515      3045.7809      13186.296      70656.867      87120        
      5100   5100           49.205042      307.67396      9943.5477      3093.4378      13036.985      69876.072      87120        
      5200   5200           50.282132      301.52341      9768.5982      3031.5985      12800.197      68980.356      87120        
      5300   5300           51.327116      295.04749      9597.488       2966.4878      12563.976      68132.879      87120        
      5400   5400           52.366867      303.34871      9485.9151      3049.9506      12535.866      67570.288      87120        
      5500   5500           53.357339      300.45271      9363.8129      3020.8333      12384.646      67005.181      87120        
      5600   5600           54.352824      295.52384      9232.784       2971.2772      12204.061      66353.727      87120        
      5700   5700           55.326714      300.97282      9201.8953      3026.0627      12227.958      66074.967      87120        
      5800   5800           56.277299      298.0935       9181.1597      2997.1132      12178.273      65899.607      87120        
      5900   5900           57.222377      295.30123      9177.3959      2969.0389      12146.435      65821.008      87120        
      6000   6000           58.146649      300.34626      9130.6533      3019.7631      12150.416      65673.755      87120        
      6100   6100           59.067489      293.81802      9122.8449      2954.1264      12076.971      65632.758      87120        
      6200   6200           59.979221      298.93532      9198.2219      3005.5771      12203.799      65917.815      87120        
      6300   6300           60.894251      298.98993      9186.2753      3006.1262      12192.401      65914.79       87120        
      6400   6400           61.820128      302.07036      9208.0676      3037.0976      12245.165      66044.321      87120        
      6500   6500           62.749172      297.24244      9277.6646      2988.5565      12266.221      66360.76       87120        
      6600   6600           63.707435      297.05612      9449.8434      2986.6831      12436.527      67075.765      87120        
      6700   6700           64.674718      300.95828      9449.2821      3025.9165      12475.199      67288.726      87120        
      6800   6800           65.659625      302.08159      9614.2009      3037.2106      12651.412      68002.804      87120        
      6900   6900           66.662763      309.44808      9639.4775      3111.2753      12750.753      68249.989      87120        
      7000   7000           67.676773      300.41675      9731.0209      3020.4718      12751.493      68590.906      87120        
      7100   7100           68.703642      297.01466      9884.4287      2986.2663      12870.695      69264.646      87120        
      7200   7200           69.744937      305.64006      9954.6218      3072.9884      13027.61       69643.801      87120        
      7300   7300           70.807319      296.29363      10042.306      2979.0168      13021.323      70051.695      87120        
      7400   7400           71.881101      308.12284      10028.556      3097.9509      13126.507      70120.455      87120        
      7500   7500           72.959082      302.70011      10088.907      3043.4293      13132.336      70251.377      87120        
      7600   7600           74.03078       290.3996       10075.39       2919.7567      12995.147      69993.937      87120        
      7700   7700           75.109142      299.36689      9956.3236      3009.9162      12966.24       69658.318      87120        
      7800   7800           76.186498      297.50845      9959.9264      2991.231       12951.157      69707.939      87120        
      7900   7900           77.270937      297.44493      9854.9322      2990.5923      12845.524      69255.777      87120        
      8000   8000           78.346521      306.90805      9762.6793      3085.7371      12848.416      68812.834      87120        
      8100   8100           79.419198      310.34649      9640.2348      3120.3081      12760.543      68210.534      87120        
      8200   8200           80.453598      293.436        9552.4441      2950.2854      12502.729      67755.272      87120        
      8300   8300           81.495635      300.82297      9425.4965      3024.556       12450.052      67230.686      87120        
      8400   8400           82.496899      300.08485      9407.3757      3017.1348      12424.511      67163.794      87120        
      8500   8500           83.485061      301.79612      9369.0108      3034.3404      12403.351      66908.336      87120        
      8600   8600           84.497609      289.74256      9352.8296      2913.1506      12265.98       66740.551      87120        
      8700   8700           85.490102      298.86525      9334.9548      3004.8726      12339.827      66703.448      87120        
      8800   8800           86.492058      301.82792      9326.675       3034.6601      12361.335      66651.975      87120        
      8900   8900           87.475652      296.53414      9326.5923      2981.435       12308.027      66666.611      87120        
      9000   9000           88.486687      304.82377      9412.7441      3064.7812      12477.525      67048.441      87120        
      9100   9100           89.476634      295.88683      9482.1641      2974.9268      12457.091      67270.374      87120        
      9200   9200           90.453097      306.04469      9458.998       3077.0567      12536.055      67243.258      87120        
      9300   9300           91.455575      297.37829      9439.7926      2989.9223      12429.715      67182.147      87120        
      9400   9400           92.47712       307.26111      9504.7947      3089.2868      12594.082      67482.173      87120        
      9500   9500           93.490696      302.23384      9545.5185      3038.7414      12584.26       67746.509      87120        
      9600   9600           94.499862      306.85314      9698.1139      3085.185       12783.299      68409.784      87120        
      9700   9700           95.506542      302.30098      9694.3533      3039.4163      12733.77       68362.242      87120        
      9800   9800           96.546242      307.51926      9710.2567      3091.8823      12802.139      68467.299      87120        
      9900   9900           97.56709       310.78753      9703.8119      3124.7425      12828.554      68552.03       87120        
     10000   10000          98.608317      297.0285       9826.9647      2986.4054      12813.37       68933.23       87120        
     10100   10100          99.641474      306.08044      9823.642       3077.4161      12901.058      68990.924      87120        
     10200   10200          100.67236      294.1028       9838.8233      2956.9896      12795.813      69054.779      87120        
     10300   10300          101.71282      301.73897      9745.5798      3033.7658      12779.346      68716.526      87120        
     10400   10400          102.76555      291.38272      9754.5866      2929.6412      12684.228      68701.708      87120        
     10500   10500          103.81829      302.69273      9672.0155      3043.3551      12715.371      68423.011      87120        
     10600   10600          104.86179      303.99869      9681.2524      3056.4856      12737.738      68391.524      87120        
     10700   10700          105.88161      300.61831      9684.221       3022.4984      12706.719      68375.239      87120        
     10800   10800          106.91671      293.55788      9590.1776      2951.5109      12541.688      67944.986      87120        
     10900   10900          107.93221      298.27313      9637.8699      2998.9192      12636.789      68090.115      87120        
     11000   11000          108.96307      298.03684      9558.3674      2996.5435      12554.911      67855.038      87120        
     11100   11100          109.96248      291.99131      9508.5313      2935.7601      12444.291      67621.149      87120        
     11200   11200          110.95667      304.39212      9516.3265      3060.4413      12576.768      67594.58       87120        
     11300   11300          111.94972      306.25033      9494.9087      3079.1242      12574.033      67441.915      87120        
     11400   11400          112.94527      295.20849      9514.0765      2968.1065      12482.183      67489.856      87120        
     11500   11500          113.93663      297.36573      9481.0533      2989.796       12470.849      67469.674      87120        
     11600   11600          114.92174      303.2264       9508.8204      3048.7208      12557.541      67550.441      87120        
     11700   11700          115.91934      298.91186      9461.8661      3005.3412      12467.207      67305.801      87120        
     11800   11800          116.93101      306.99296      9452.2117      3086.5908      12538.802      67297.103      87120        
     11900   11900          117.91872      298.64732      9564.8533      3002.6815      12567.535      67701.048      87120        
     12000   12000          118.91482      299.9919       9568.6733      3016.2003      12584.874      67725.116      87120        
     12100   12100          119.90162      298.69594      9552.7817      3003.1703      12555.952      67699.749      87120        
     12200   12200          120.8973       289.21402      9587.8973      2907.8365      12495.734      67847.936      87120        
     12300   12300          121.91175      303.38959      9593.2946      3050.3615      12643.656      67948.23       87120        
     12400   12400          122.92482      301.09766      9655.2972      3027.3179      12682.615      68130.741      87120        
     12500   12500          123.95145      303.85533      9644.7838      3055.0442      12699.828      68087.817      87120        
     12600   12600          124.96793      297.48403      9667.0781      2990.9855      12658.064      68193.29       87120        
     12700   12700          125.98836      297.62004      9686.7562      2992.3529      12679.109      68325.19       87120        
     12800   12800          127.0121       299.09896      9669.8364      3007.2224      12677.059      68283.025      87120        
     12900   12900          128.02789      294.62142      9653.9992      2962.204       12616.203      68215.798      87120        
     13000   13000          129.06034      304.25628      9659.0773      3059.0755      12718.153      68277.04       87120        
     13100   13100          130.08064      296.25388      9657.1757      2978.6172      12635.793      68275.073      87120        
     13200   13200          131.10593      300.39594      9631.6552      3020.2625      12651.918      68184.276      87120        
     13300   13300          132.13094      304.97612      9637.8252      3066.313       12704.138      68187.844      87120        
     13400   13400          133.15188      305.05577      9630.1357      3067.1138      12697.25       68131.586      87120        
     13500   13500          134.17012      297.70668      9616.0101      2993.224       12609.234      68029.424      87120        
     13600   13600          135.17409      308.655        9571.3221      3103.3014      12674.624      67920.463      87120        
     13700   13700          136.18059      295.96603      9632.4084      2975.723       12608.131      68213.366      87120        
     13800   13800          137.208        294.56608      9666.3951      2961.6476      12628.043      68317.357      87120        
     13900   13900          138.21583      298.80489      9554.148       3004.2657      12558.414      67863.342      87120        
     14000   14000          139.24043      298.17314      9539.3221      2997.914       12537.236      67660.267      87120        
     14100   14100          140.25605      297.51184      9595.0319      2991.265       12586.297      67848.599      87120        
     14200   14200          141.26231      296.73886      9553.7273      2983.4933      12537.221      67754.185      87120        
     14300   14300          142.28082      303.87907      9525.045       3055.2829      12580.328      67758.338      87120        
     14400   14400          143.29854      303.82953      9568.7103      3054.7848      12623.495      67912.503      87120        
     14500   14500          144.31957      295.13608      9585.1318      2967.3785      12552.51       67891.201      87120        
     14600   14600          145.32137      303.63851      9613.371       3052.8642      12666.235      67974.683      87120        
     14700   14700          146.3264       298.89984      9571.471       3005.2203      12576.691      67762.882      87120        
     14800   14800          147.3473       302.37818      9634.2023      3040.1926      12674.395      68081.024      87120        
     14900   14900          148.36395      302.20623      9596.21        3038.4637      12634.674      68007.802      87120        
     15000   15000          149.36407      296.33739      9604.6428      2979.4568      12584.1        67998.288      87120        
     15100   15100          150.36827      308.72438      9656.5234      3103.9989      12760.522      68170.378      87120        
     15200   15200          151.3907       305.95975      9624.4253      3076.2027      12700.628      67940.314      87120        
     15300   15300          152.39401      296.09264      9559.0659      2976.9961      12536.062      67677.603      87120        
     15400   15400          153.40502      298.70373      9594.7561      3003.2486      12598.005      67856.253      87120        
     15500   15500          154.40986      300.04703      9541.1602      3016.7545      12557.915      67732.507      87120        
     15600   15600          155.41321      297.6289       9472.1943      2992.442       12464.636      67459.28       87120        
     15700   15700          156.41966      301.66262      9565.3409      3032.9981      12598.339      67777.734      87120        
     15800   15800          157.43547      312.56856      9522.8606      3142.6494      12665.51       67589.822      87120        
     15900   15900          158.43178      294.40632      9541.1662      2960.0414      12501.208      67581.58       87120        
     16000   16000          159.44421      305.07247      9527.655       3067.2817      12594.937      67598.439      87120        
     16100   16100          160.44324      302.60721      9452.1559      3042.4953      12494.651      67484.745      87120        
     16200   16200          161.4373       296.59299      9577.7094      2982.0266      12559.736      67831.265      87120        
     16300   16300          162.42115      300.46526      9545.825       3020.9595      12566.784      67650.79       87120        
     16400   16400          163.4253       291.8545       9573.2144      2934.3846      12507.599      67671.406      87120        
     16500   16500          164.41714      302.47853      9641.8857      3041.2015      12683.087      67996.286      87120        
     16600   16600          165.43353      307.44506      9599.1165      3091.1363      12690.253      67998.44       87120        
     16700   16700          166.45005      295.71771      9568.0186      2973.2264      12541.245      67948.123      87120        
     16800   16800          167.45517      298.22646      9590.5181      2998.45        12588.968      67920.163      87120        
     16900   16900          168.47666      288.74368      9582.8965      2903.1076      12486.004      67821.815      87120        
     17000   17000          169.49668      301.95872      9568.7762      3035.9752      12604.751      67837.193      87120        
     17100   17100          170.50485      301.63166      9532.3015      3032.6869      12564.988      67790.837      87120        
     17200   17200          171.52222      295.28826      9619.0173      2968.9086      12587.926      68125.579      87120        
     17300   17300          172.5423       301.20771      9624.5137      3028.4243      12652.938      68141.014      87120        
     17400   17400          173.56304      297.00082      9556.8178      2986.1271      12542.945      67883.275      87120        
     17500   17500          174.59096      296.26717      9592.1298      2978.7508      12570.881      67959.952      87120        
     17600   17600          175.63539      306.98593      9544.5664      3086.5201      12631.086      67827.272      87120        
     17700   17700          176.66718      297.48537      9536.2467      2990.9989      12527.246      67790.222      87120        
     17800   17800          177.6893       295.9422       9593.2094      2975.4835      12568.693      67920.791      87120        
     17900   17900          178.71263      302.71546      9554.9909      3043.5837      12598.575      67851.757      87120        
     18000   18000          179.74908      301.68936      9528.0123      3033.267       12561.279      67721.29       87120        
     18100   18100          180.75448      301.20814      9547.5385      3028.4286      12575.967      67723.459      87120        
     18200   18200          181.77063      306.57594      9604.614       3082.398       12687.012      67911.144      87120        
     18300   18300          182.79729      303.26301      9546.3835      3049.0889      12595.472      67819.69       87120        
     18400   18400          183.81561      304.51902      9607.7214      3061.7171      12669.439      68022.4        87120        
     18500   18500          184.8489       299.72661      9587.1796      3013.5329      12600.713      67988.333      87120        
     18600   18600          185.86669      304.2415       9629.4139      3058.9269      12688.341      68082.75       87120        
     18700   18700          186.89445      302.20445      9587.517       3038.4459      12625.963      67906.386      87120        
     18800   18800          187.91277      292.02644      9608.361       2936.1133      12544.474      67949.615      87120        
     18900   18900          188.93493      304.4211       9631.1834      3060.7326      12691.916      68028.474      87120        
     19000   19000          189.95912      299.26006      9543.8321      3008.8421      12552.674      67785.808      87120        
     19100   19100          190.96615      297.99743      9553.698       2996.1473      12549.845      67784.478      87120        
     19200   19200          191.98161      304.22176      9537.4199      3058.7285      12596.148      67696.454      87120        
     19300   19300          192.98588      295.7633       9508.4141      2973.6847      12482.099      67524.892      87120        
     19400   19400          193.97369      305.77001      9607.8129      3074.295       12682.108      67965.679      87120        
     19500   19500          194.97834      296.05337      9537.4494      2976.6012      12514.051      67714.199      87120        
     19600   19600          195.98744      301.03321      9517.9377      3026.6698      12544.608      67657.393      87120        
     19700   19700          197.01294      298.55463      9562.7989      3001.7495      12564.548      67734.859      87120        
     19800   19800          198.00885      304.35903      9580.8912      3060.1085      12641          67821.509      87120        
     19900   19900          199.03372      299.86513      9590.0936      3014.9256      12605.019      67843.201      87120        
     20000   20000          200.03789      294.01617      9522.7225      2956.1186      12478.841      67639.938      87120        
     20100   20100          201.03563      295.86049      9630.7155      2974.662       12605.377      68047.206      87120        
     20200   20200          202.04093      302.25819      9642.7203      3038.9861      12681.706      68203.504      87120        
     20300   20300          203.07583      297.21374      9569.9115      2988.2679      12558.179      67914.321      87120        
     20400   20400          204.10399      299.35303      9625.4031      3009.7769      12635.18       68059.974      87120        
     20500   20500          205.13692      298.02463      9646.5955      2996.4208      12643.016      68089.954      87120        
     20600   20600          206.17052      296.20127      9600.7662      2978.0882      12578.854      68012.933      87120        
     20700   20700          207.20683      301.35104      9648.0627      3029.8654      12677.928      68239.106      87120        
     20800   20800          208.23628      299.41363      9546.456       3010.3862      12556.842      67857.682      87120        
     20900   20900          209.27374      294.55708      9610.0274      2961.5571      12571.585      67989.61       87120        
     21000   21000          210.29926      303.47542      9609.9315      3051.2245      12661.156      67994.631      87120        
     21100   21100          211.30284      302.04893      9592.3442      3036.8822      12629.226      67990.024      87120        
     21200   21200          212.32052      301.95707      9545.394       3035.9586      12581.353      67881.976      87120        
     21300   21300          213.33372      298.94076      9606.9545      3005.6318      12612.586      68003.645      87120        
     21400   21400          214.35793      303.78191      9580.1063      3054.3061      12634.412      67855.891      87120        
     21500   21500          215.37722      298.62889      9511.5369      3002.4962      12514.033      67598.768      87120        
     21600   21600          216.39254      300.55011      9536.4687      3021.8126      12558.281      67697.632      87120        
     21700   21700          217.39424      298.80229      9554.1453      3004.2396      12558.385      67782.341      87120        
     21800   21800          218.40422      304.2087       9552.0335      3058.5971      12610.631      67779.53       87120        
     21900   21900          219.4177       293.15797      9565.3211      2947.4901      12512.811      67808.277      87120        
     22000   22000          220.45151      308.10825      9561.209       3097.8042      12659.013      67795.491      87120        
     22100   22100          221.45676      306.44526      9547.8666      3081.0841      12628.951      67748.064      87120        
     22200   22200          222.44984      297.67596      9586.2618      2992.9151      12579.177      67947.589      87120        
     22300   22300          223.46067      300.65199      9549.9474      3022.837       12572.784      67910.227      87120        
     22400   22400          224.45958      296.65338      9578.9455      2982.6339      12561.579      67922.623      87120        
     22500   22500          225.48428      305.45269      9598.3447      3071.1045      12669.449      67966.546      87120        
     22600   22600          226.50577      298.17755      9577.2975      2997.9582      12575.256      67848.233      87120        
     22700   22700          227.51227      303.4191       9545.841       3050.6583      12596.499      67805.394      87120        
     22800   22800          228.53289      300.2534       9554.8837      3018.8295      12573.713      67774.284      87120        
     22900   22900          229.5572       297.28298      9504.8244      2988.9641      12493.788      67701.875      87120        
     23000   23000          230.58188      298.63734      9516.3771      3002.5812      12518.958      67728.443      87120        
     23100   23100          231.57475      308.69666      9553.3589      3103.7203      12657.079      67881.564      87120        
     23200   23200          232.5746       298.65933      9563.491       3002.8022      12566.293      67855.635      87120        
     23300   23300          233.57604      299.19608      9566.3126      3008.1989      12574.511      67815.755      87120        
     23400   23400          234.5932       304.40591      9563.9622      3060.5799      12624.542      67854.958      87120        
     23500   23500          235.59687      298.32317      9604.7459      2999.4224      12604.168      67978.159      87120        
     23600   23600          236.6185       295.94289      9570.442       2975.4904      12545.932      67868.182      87120        
     23700   23700          237.62626      308.68484      9525.7709      3103.6015      12629.372      67719.359      87120        
     23800   23800          238.6551       303.75553      9575.9129      3054.0408      12629.954      67855.585      87120        
     23900   23900          239.65608      305.13432      9529.9253      3067.9035      12597.829      67722.462      87120        
     24000   24000          240.6882       301.87926      9592.1961      3035.1762      12627.372      67936.936      87120        
     24100   24100          241.67963      299.53692      9534.2096      3011.6257      12545.835      67740.91       87120        
     24200   24200          242.68503      293.5803       9552.6503      2951.7362      12504.387      67738.309      87120        
     24300   24300          243.69334      303.9943       9575.8702      3056.4415      12632.312      67812.735      87120        
     24400   24400          244.71738      296.07291      9530.6877      2976.7976      12507.485      67666.193      87120        
     24500   24500          245.71353      301.19642      9531.7154      3028.3108      12560.026      67704.189      87120        
     24600   24600          246.72227      302.47458      9446.4754      3041.1618      12487.637      67378.298      87120        
     24700   24700          247.73684      300.64766      9535.228       3022.7934      12558.021      67639.578      87120        
     24800   24800          248.74207      297.37442      9511.1601      2989.8834      12501.044      67604.374      87120        
     24900   24900          249.76261      295.20253      9572.5686      2968.0466      12540.615      67863.384      87120        
     25000   25000          250.7703       300.3198       9526.7723      3019.497       12546.269      67739.142      87120        
     25100   25100          251.76896      299.00217      9561.646       3006.2493      12567.895      67755.333      87120        
     25200   25200          252.7756       295.8559       9525.9346      2974.6158      12500.55       67628.654      87120        
     25300   25300          253.78453      298.58531      9569.4908      3002.058       12571.549      67852.916      87120        
     25400   25400          254.77705      298.672        9566.1023      3002.9296      12569.032      67887.401      87120        
     25500   25500          255.79914      300.67251      9605.1886      3023.0433      12628.232      67995.587      87120        
     25600   25600          256.82104      303.50803      9553.9794      3051.5524      12605.532      67837.503      87120        
     25700   25700          257.85434      294.261        9590.5773      2958.5802      12549.157      67838.74       87120        
     25800   25800          258.88055      300.38323      9544.557       3020.1348      12564.692      67741.963      87120        
     25900   25900          259.8992       299.39064      9569.924       3010.155       12580.079      67779.252      87120        
     26000   26000          260.91445      295.82042      9579.4563      2974.2591      12553.715      67813.712      87120        
     26100   26100          261.91196      302.49856      9630.9883      3041.4029      12672.391      68098.397      87120        
     26200   26200          262.91854      299.37229      9629.9864      3009.9705      12639.957      68056.593      87120        
     26300   26300          263.94064      297.36926      9608.3053      2989.8315      12598.137      67907.945      87120        
     26400   26400          264.98029      306.30576      9566.3466      3079.6815      12646.028      67792.517      87120        
     26500   26500          266.0013       287.43375      9578.2415      2889.9372      12468.179      67785.6        87120        
     26600   26600          267.0362       302.45934      9536.2174      3041.0085      12577.226      67759.109      87120        
     26700   26700          268.06826      300.16124      9587.2537      3017.9028      12605.157      67877.533      87120        
     26800   26800          269.1026       303.42882      9601.8384      3050.756       12652.594      67914.285      87120        
     26900   26900          270.1282       307.09625      9589.1104      3087.6293      12676.74       67914.487      87120        
     27000   27000          271.13488      305.71008      9593.012       3073.6924      12666.704      67982.34       87120        
     27100   27100          272.13229      297.6652       9532.239       2992.807       12525.046      67697.602      87120        
     27200   27200          273.13569      291.96936      9535.5452      2935.5394      12471.085      67587.593      87120        
     27300   27300          274.1211       298.34383      9584.9649      2999.6301      12584.595      67748.732      87120        
     27400   27400          275.12852      301.15933      9474.0853      3027.9379      12502.023      67453.631      87120        
     27500   27500          276.1203       302.89537      9510.6148      3045.3926      12556.007      67596.208      87120        
     27600   27600          277.12545      299.22213      9539.9609      3008.4608      12548.422      67722.061      87120        
     27700   27700          278.11735      298.89691      9486.0961      3005.1909      12491.287      67428.286      87120        
     27800   27800          279.12831      298.52666      9513.6278      3001.4683      12515.096      67435.07       87120        
     27900   27900          280.12391      304.52742      9430.5692      3061.8016      12492.371      67237.365      87120        
     28000   28000          281.12384      304.43358      9532.685       3060.8581      12593.543      67669.474      87120        
     28100   28100          282.11797      299.96507      9539.3532      3015.9305      12555.284      67688.636      87120        
     28200   28200          283.12349      296.59246      9504.3933      2982.0214      12486.415      67506.478      87120        
     28300   28300          284.12776      297.53957      9578.4657      2991.5438      12570.009      67731.748      87120        
     28400   28400          285.14429      296.65359      9555.129       2982.636       12537.765      67743.314      87120        
     28500   28500          286.15934      304.86497      9599.78        3065.1954      12664.975      67976.519      87120        
     28600   28600          287.17525      300.51495      9609.8958      3021.4591      12631.355      68110.266      87120        
     28700   28700          288.19506      300.72556      9684.7439      3023.5766      12708.321      68287.47       87120        
     28800   28800          289.206        293.65881      9660.5677      2952.5257      12613.093      68206.993      87120        
     28900   28900          290.23342      299.29678      9625.3345      3009.2113      12634.546      68118.498      87120        
     29000   29000          291.26627      296.20852      9593.6276      2978.1612      12571.789      68034.554      87120        
     29100   29100          292.2689       301.10405      9611.2491      3027.3821      12638.631      68068.639      87120        
     29200   29200          293.29934      293.4833       9623.1475      2950.761       12573.909      68074.933      87120        
     29300   29300          294.32419      301.86621      9624.1312      3035.0451      12659.176      68063.803      87120        
     29400   29400          295.34778      295.48226      9584.5123      2970.8591      12555.371      67836.25       87120        
     29500   29500          296.38334      301.36449      9554.0676      3030.0006      12584.068      67805.002      87120        
     29600   29600          297.40286      301.48372      9521.8826      3031.1994      12553.082      67706.843      87120        
     29700   29700          298.41468      296.59046      9507.7199      2982.0013      12489.721      67505.953      87120        
     29800   29800          299.40804      293.17032      9497.5435      2947.6142      12445.158      67405.342      87120        
     29900   29900          300.41793      298.55189      9416.3922      3001.722       12418.114      67085.231      87120        
     30000   30000          301.43808      291.2995       9491.1193      2928.8045      12419.924      67426.617      87120        
     30100   30100          302.4286       303.27957      9479.8494      3049.2554      12529.105      67541.81       87120        
     30200   30200          303.42593      293.25444      9525.1518      2948.46        12473.612      67594.332      87120        
     30300   30300          304.42914      303.31427      9468.2074      3049.6042      12517.812      67299.134      87120        
     30400   30400          305.42133      298.89999      9519.9643      3005.2219      12525.186      67404.109      87120        
     30500   30500          306.42757      296.11789      9497.6152      2977.2499      12474.865      67376.057      87120        
     30600   30600          307.42763      291.26439      9520.7435      2928.4515      12449.195      67517.142      87120        
     30700   30700          308.42748      305.26129      9520.9676      3069.1801      12590.148      67558.036      87120        
     30800   30800          309.4379       299.83182      9569.6229      3014.5907      12584.214      67593.782      87120        
     30900   30900          310.4704       301.22342      9553.9667      3028.5823      12582.549      67596.509      87120        
     31000   31000          311.48777      305.51223      9544.026       3071.7032      12615.729      67730.109      87120        
     31100   31100          312.49216      299.20981      9592.9392      3008.3369      12601.276      67921.443      87120        
     31200   31200          313.50622      297.15556      9612.7697      2987.6829      12600.453      67933.835      87120        
     31300   31300          314.53184      294.57638      9606.5419      2961.7511      12568.293      67947.291      87120        
     31400   31400          315.52636      299.0874       9598.5212      3007.1062      12605.627      67901.143      87120        
     31500   31500          316.54348      296.24514      9630.8368      2978.5293      12609.366      67992.669      87120        
     31600   31600          317.55264      300.77502      9609.4751      3024.074       12633.549      68039.688      87120        
     31700   31700          318.57929      308.07929      9659.3518      3097.513       12756.865      68231.045      87120        
     31800   31800          319.61046      288.75174      9658.3282      2903.1887      12561.517      68162.733      87120        
     31900   31900          320.64209      302.33565      9596.7248      3039.765       12636.49       67990.675      87120        
     32000   32000          321.6523       303.82611      9646.2085      3054.7504      12700.959      68186.915      87120        
     32100   32100          322.66316      301.21194      9630.2005      3028.4669      12658.667      68082.499      87120        
     32200   32200          323.65971      292.06112      9623.4015      2936.462       12559.864      67987.519      87120        
     32300   32300          324.67127      303.15109      9595.2997      3047.9636      12643.263      67922.397      87120        
     32400   32400          325.68371      305.33359      9633.0915      3069.907       12702.999      68100.599      87120        
     32500   32500          326.67971      300.21939      9585.5919      3018.4875      12604.079      67885.839      87120        
     32600   32600          327.68558      291.18256      9613.709       2927.6288      12541.338      67912.99       87120        
     32700   32700          328.67984      293.28593      9489.8109      2948.7766      12438.587      67422.069      87120        
     32800   32800          329.691        293.05202      9531.4152      2946.4248      12477.84       67588.245      87120        
     32900   32900          330.69588      304.12386      9520.1764      3057.7441      12577.92       67569.54       87120        
     33000   33000          331.69553      306.00019      9505.6542      3076.6092      12582.263      67523.925      87120        
     33100   33100          332.67425      303.73777      9536.5325      3053.8623      12590.395      67567.74       87120        
     33200   33200          333.66447      300.61723      9493.4235      3022.4875      12515.911      67338.143      87120        
     33300   33300          334.65407      304.98425      9507.6454      3066.3947      12574.04       67367.771      87120        
     33400   33400          335.644        301.9776       9503.4107      3036.165       12539.576      67457.246      87120        
     33500   33500          336.63011      294.78171      9522.515       2963.8156      12486.331      67610.004      87120        
     33600   33600          337.63252      302.74846      9499.1181      3043.9154      12543.034      67522.14       87120        
     33700   33700          338.62074      298.42295      9548.3449      3000.4255      12548.77       67637.559      87120        
     33800   33800          339.62332      301.22949      9500.2044      3028.6433      12528.848      67463.372      87120        
     33900   33900          340.62697      303.10593      9581.3541      3047.5096      12628.864      67710.405      87120        
     34000   34000          341.63624      296.55972      9570.8866      2981.6922      12552.579      67743.646      87120        
     34100   34100          342.63189      298.77362      9609.7356      3003.9514      12613.687      67954.19       87120        
     34200   34200          343.63828      305.14056      9642.0229      3067.9663      12709.989      68171.92       87120        
     34300   34300          344.62772      302.04213      9602.3185      3036.8138      12639.132      68041.252      87120        
     34400   34400          345.6403       298.45508      9634.8108      3000.7486      12635.559      68037.444      87120        
     34500   34500          346.65718      298.49832      9621.9884      3001.1834      12623.172      67982.611      87120        
     34600   34600          347.65984      306.34048      9593.9723      3080.0306      12674.003      67992.012      87120        
     34700   34700          348.67285      299.797        9624.9824      3014.2406      12639.223      68116.774      87120        
     34800   34800          349.68593      292.13448      9634.1682      2937.1996      12571.368      68020.233      87120        
     34900   34900          350.68273      305.16544      9665.9756      3068.2165      12734.192      68074.112      87120        
     35000   35000          351.71082      302.0914       9580.0746      3037.3092      12617.384      67745.369      87120        
     35100   35100          352.71032      305.42546      9527.1443      3070.8307      12597.975      67672.41       87120        
     35200   35200          353.6982       296.23107      9593.0491      2978.3878      12571.437      67886.051      87120        
     35300   35300          354.71457      288.91009      9561.5039      2904.7807      12466.285      67684.931      87120        
     35400   35400          355.7175       298.55269      9513.1418      3001.7301      12514.872      67521.684      87120        
     35500   35500          356.71514      304.69505      9433.3908      3063.487       12496.878      67267.337      87120        
     35600   35600          357.71853      304.63391      9498.471       3062.8722      12561.343      67448.219      87120        
     35700   35700          358.72984      295.40627      9515.6679      2970.095       12485.763      67473.862      87120        
     35800   35800          359.74447      299.78712      9500.1736      3014.1413      12514.315      67390.719      87120        
     35900   35900          360.75074      305.00023      9439.3236      3066.5554      12505.879      67233.879      87120        
     36000   36000          361.74949      294.34288      9439.9827      2959.4034      12399.386      67164.047      87120        
     36100   36100          362.74026      298.35265      9452.0242      2999.7188      12451.743      67178.073      87120        
     36200   36200          363.73384      304.25098      9447.6215      3059.0222      12506.644      67151.154      87120        
     36300   36300          364.72523      293.23907      9459.0413      2948.3055      12407.347      67302.491      87120        
     36400   36400          365.73199      301.20738      9509.3976      3028.421       12537.819      67574.809      87120        
     36500   36500          366.73066      298.87493      9535.7121      3004.9699      12540.682      67596.613      87120        
     36600   36600          367.751        296.73714      9510.2918      2983.476       12493.768      67561.964      87120        
     36700   36700          368.75937      300.35579      9616.7786      3019.8589      12636.637      67984.441      87120        
     36800   36800          369.76622      304.35184      9560.287       3060.0362      12620.323      67774.656      87120        
     36900   36900          370.78271      298.64082      9652.4958      3002.6161      12655.112      67988.136      87120        
     37000   37000          371.78755      300.08912      9568.3301      3017.1777      12585.508      67761.959      87120        
     37100   37100          372.78861      299.59131      9572.7089      3012.1726      12584.881      67851.131      87120        
     37200   37200          373.78879      302.86079      9604.9375      3045.0448      12649.982      67994.656      87120        
     37300   37300          374.77512      299.32554      9551.6837      3009.5005      12561.184      67704.779      87120        
     37400   37400          375.78462      300.9719       9545.0041      3026.0534      12571.057      67548.951      87120        
     37500   37500          376.777        301.06099      9548.927       3026.9492      12575.876      67620.937      87120        
     37600   37600          377.78788      299.92426      9541.251       3015.5201      12556.771      67694.284      87120        
     37700   37700          378.7981       297.84778      9573.7122      2994.6426      12568.355      67833.765      87120        
     37800   37800          379.79344      292.86398      9524.6596      2944.5342      12469.194      67554.379      87120        
     37900   37900          380.79745      300.9265       9494.8275      3025.5969      12520.424      67415.147      87120        
     38000   38000          381.80192      304.11056      9500.0301      3057.6103      12557.64       67385.582      87120        
     38100   38100          382.79008      295.97272      9467.9618      2975.7903      12443.752      67249.237      87120        
     38200   38200          383.78737      295.71202      9507.6184      2973.1692      12480.788      67501.741      87120        
     38300   38300          384.80172      297.69747      9502.8976      2993.1314      12496.029      67458.571      87120        
     38400   38400          385.80519      303.56697      9493.3111      3052.145       12545.456      67394.423      87120        
     38500   38500          386.81858      304.31316      9468.429       3059.6473      12528.076      67287.948      87120        
     38600   38600          387.82471      301.03743      9568.665       3026.7123      12595.377      67643.41       87120        
     38700   38700          388.80957      294.92705      9533.1984      2965.2769      12498.475      67581.145      87120        
     38800   38800          389.81865      307.24332      9568.852       3089.108       12657.96       67665.521      87120        
     38900   38900          390.83101      294.18854      9529.097       2957.8517      12486.949      67481.677      87120        
     39000   39000          391.85627      300.64078      9595.2316      3022.7243      12617.956      67743.414      87120        
     39100   39100          392.87571      304.95854      9597.2265      3066.1362      12663.363      67931.82       87120        
     39200   39200          393.90956      301.08257      9540.7895      3027.1662      12567.956      67640.311      87120        
     39300   39300          394.9189       302.34236      9528.5471      3039.8324      12568.38       67496.715      87120        
     39400   39400          395.94515      294.788        9585.2517      2963.8788      12549.13       67678.628      87120        
     39500   39500          396.95501      294.37836      9530.1485      2959.7602      12489.909      67520.719      87120        
     39600   39600          397.97313      303.57823      9590.1358      3052.2582      12642.394      67818.518      87120        
     39700   39700          398.99563      294.94821      9587.8948      2965.4896      12553.384      67789.951      87120        
     39800   39800          400.03304      299.90045      9583.3453      3015.2807      12598.626      67787.532      87120        
     39900   39900          401.05725      298.00449      9539.885       2996.2183      12536.103      67641.15       87120        
     40000   40000          402.07832      304.29586      9549.4745      3059.4734      12608.948      67695.544      87120        
     40100   40100          403.07655      292.8958       9569.3269      2944.8542      12514.181      67647.483      87120        
     40200   40200          404.06306      297.58654      9505.0804      2992.0161      12497.097      67430.335      87120        
     40300   40300          405.05601      298.05088      9549.4327      2996.6847      12546.117      67617.266      87120        
     40400   40400          406.04837      293.30024      9495.2282      2948.9205      12444.149      67392.936      87120        
     40500   40500          407.04836      304.12083      9535.9728      3057.7137      12593.686      67530.357      87120        
     40600   40600          408.04762      298.20114      9533.4405      2998.1955      12531.636      67559.397      87120        
     40700   40700          409.04037      299.65371      9507.7127      3012.8         12520.513      67426.129      87120        
     40800   40800          410.05071      302.77592      9508.5859      3044.1915      12552.777      67424.864      87120        
     40900   40900          411.04839      305.93984      9551.6895      3076.0025      12627.692      67573.444      87120        
     41000   41000          412.0354       297.61843      9512.4395      2992.3368      12504.776      67445.621      87120        
     41100   41100          413.03757      293.36527      9494.5073      2949.5743      12444.082      67347.338      87120        
     41200   41200          414.02691      298.24058      9493.5761      2998.592       12492.168      67288.008      87120        
     41300   41300          415.01683      304.64795      9522.4199      3063.0135      12585.433      67376.678      87120        
     41400   41400          416.00613      305.40825      9433.4969      3070.6577      12504.155      67158.172      87120        
     41500   41500          416.99589      297.74221      9539.807       2993.5812      12533.388      67597.194      87120        
     41600   41600          417.98988      298.81924      9508.8278      3004.4101      12513.238      67502.945      87120        
     41700   41700          419.00533      301.83411      9494.4943      3034.7223      12529.217      67392.155      87120        
     41800   41800          420.01767      297.78707      9565.8407      2994.0322      12559.873      67580.304      87120        
     41900   41900          421.032        298.02545      9574.1847      2996.429       12570.614      67656.305      87120        
     42000   42000          422.05148      301.35175      9535.0278      3029.8726      12564.9        67611.55       87120        
     42100   42100          423.04928      299.69075      9564.1284      3013.1724      12577.301      67718.932      87120        
     42200   42200          424.05101      302.70393      9544.7971      3043.4677      12588.265      67643.99       87120        
     42300   42300          425.04071      299.07991      9540.2974      3007.0309      12547.328      67611.987      87120        
     42400   42400          426.02926      300.96347      9540.2662      3025.9687      12566.235      67584.201      87120        
     42500   42500          427.0409       294.7622       9533.3562      2963.6195      12496.976      67520.279      87120        
     42600   42600          428.03102      301.90509      9547.4821      3035.436       12582.918      67622.043      87120        
     42700   42700          429.03442      302.89938      9505.1678      3045.4329      12550.601      67488.399      87120        
     42800   42800          430.04165      303.31567      9510.1061      3049.6183      12559.724      67503.14       87120        
     42900   42900          431.04842      299.86963      9519.2787      3014.9709      12534.25       67565.627      87120        
     43000   43000          432.06029      288.15098      9540.4025      2897.1484      12437.551      67557.571      87120        
     43100   43100          433.0458       301.89901      9482.6406      3035.3749      12518.015      67441.028      87120        
     43200   43200          434.04049      303.77676      9505.3687      3054.2543      12559.623      67472.971      87120        
     43300   43300          435.03291      299.19741      9500.0383      3008.2122      12508.25       67378.99       87120        
     43400   43400          436.02152      292.81057      9510.314       2943.9972      12454.311      67381.403      87120        
     43500   43500          437.01472      300.10164      9512.5687      3017.3036      12529.872      67461.669      87120        
     43600   43600          437.9999       297.86804      9476.9153      2994.8463      12471.762      67387.215      87120        
     43700   43700          439.00567      298.40964      9529.3795      3000.2918      12529.671      67555.019      87120        
     43800   43800          440.01114      301.20584      9495.5668      3028.4055      12523.972      67393.406      87120        
     43900   43900          441.01865      299.94015      9510.2937      3015.68        12525.974      67515.822      87120        
     44000   44000          442.01719      302.91128      9502.6697      3045.5525      12548.222      67465.509      87120        
     44100   44100          442.99218      296.12739      9492.4475      2977.3454      12469.793      67421.67       87120        
     44200   44200          444.00831      305.04006      9538.5119      3066.9559      12605.468      67492.301      87120        
     44300   44300          445.01091      290.82062      9577.7164      2923.9897      12501.706      67684.701      87120        
     44400   44400          446.00792      300.3644       9450.1849      3019.9455      12470.13       67304.057      87120        
     44500   44500          447.02868      308.37842      9559.988       3100.5206      12660.509      67701.508      87120        
     44600   44600          448.03935      297.32775      9508.3506      2989.4142      12497.765      67438.719      87120        
     44700   44700          449.04676      302.84749      9473.3345      3044.9111      12518.246      67280.581      87120        
     44800   44800          450.05748      301.17015      9531.7111      3028.0467      12559.758      67569.575      87120        
     44900   44900          451.09173      298.32623      9554.9086      2999.4532      12554.362      67699.328      87120        
     45000   45000          452.10943      302.98041      9554.3594      3046.2476      12600.607      67728.468      87120        
     45100   45100          453.11995      304.03593      9578.2248      3056.8601      12635.085      67773.446      87120        
     45200   45200          454.1232       303.79538      9538.7763      3054.4414      12593.218      67618.628      87120        
     45300   45300          455.10839      290.57708      9576.7703      2921.5411      12498.311      67741.242      87120        
     45400   45400          456.12377      302.53095      9557.4732      3041.7285      12599.202      67727.345      87120        
     45500   45500          457.10944      298.7476       9535.9202      3003.6897      12539.61       67662.576      87120        
     45600   45600          458.11844      306.29633      9586.1434      3079.5867      12665.73       67792.525      87120        
     45700   45700          459.1184       298.10524      9535.601       2997.2312      12532.832      67623.137      87120        
     45800   45800          460.13089      304.94562      9523.0342      3066.0063      12589.041      67583.427      87120        
     45900   45900          461.13663      295.13729      9501.6275      2967.3907      12469.018      67481.053      87120        
     46000   46000          462.14053      305.54849      9519.8387      3072.0677      12591.906      67452.452      87120        
     46100   46100          463.1274       302.26318      9496.7867      3039.0363      12535.823      67385.807      87120        
     46200   46200          464.14166      300.52787      9531.0618      3021.589       12552.651      67607.771      87120        
     46300   46300          465.13637      298.97922      9545.3465      3006.0185      12551.365      67587.435      87120        
     46400   46400          466.13177      305.66188      9526.6947      3073.2078      12599.902      67487.876      87120        
     46500   46500          467.12621      297.31772      9575.6         2989.3133      12564.913      67669.839      87120        
     46600   46600          468.12919      297.78705      9518.4045      2994.0321      12512.437      67509.836      87120        
     46700   46700          469.12578      306.68377      9512.9535      3083.4822      12596.436      67556.276      87120        
     46800   46800          470.12329      299.32933      9517.5898      3009.5386      12527.128      67568.965      87120        
     46900   46900          471.12271      288.22416      9486.1799      2897.8842      12384.064      67391.353      87120        
     47000   47000          472.11955      305.4829       9588.501       3071.4082      12659.909      67673.098      87120        
     47100   47100          473.10618      303.54994      9552.1803      3051.9737      12604.154      67589.84       87120        
     47200   47200          474.12115      302.2422       9541.2232      3038.8253      12580.049      67620.757      87120        
     47300   47300          475.11725      308.43007      9548.8394      3101.0399      12649.879      67702.564      87120        
     47400   47400          476.13041      302.55855      9516.5712      3042.0061      12558.577      67614.407      87120        
     47500   47500          477.136        302.08832      9531.3701      3037.2782      12568.648      67575.243      87120        
     47600   47600          478.1274       306.60283      9485.5035      3082.6683      12568.172      67356.266      87120        
     47700   47700          479.13088      300.36251      9507.2634      3019.9264      12527.19       67367.178      87120        
     47800   47800          480.12879      305.16315      9520.4897      3068.1934      12588.683      67526.52       87120        
     47900   47900          481.14354      299.65358      9545.0156      3012.7987      12557.814      67694.603      87120        
     48000   48000          482.15079      304.60573      9551.3372      3062.589       12613.926      67694.908      87120        
     48100   48100          483.15956      298.47928      9530.2678      3000.9919      12531.26       67563.972      87120        
     48200   48200          484.15084      297.50548      9547.922       2991.2011      12539.123      67625.854      87120        
     48300   48300          485.14605      295.00205      9532.4897      2966.0309      12498.521      67547.271      87120        
     48400   48400          486.14607      308.29763      9512.6976      3099.7084      12612.406      67415.661      87120        
     48500   48500          487.14957      300.75622      9451.2509      3023.8849      12475.136      67204.949      87120        
     48600   48600          488.14485      296.66263      9510.0419      2982.7269      12492.769      67499.175      87120        
     48700   48700          489.1147       301.84808      9466.7173      3034.8628      12501.58       67434.791      87120        
     48800   48800          490.10043      300.05113      9553.9443      3016.7957      12570.74       67668.529      87120        
     48900   48900          491.10514      297.64176      9528.3106      2992.5713      12520.882      67524.78       87120        
     49000   49000          492.09704      290.45878      9518.6167      2920.3516      12438.968      67406.638      87120        
     49100   49100          493.07866      301.50857      9465.7297      3031.4493      12497.179      67249.001      87120        
     49200   49200          494.07553      300.55153      9551.4214      3021.8269      12573.248      67649.236      87120        
     49300   49300          495.07416      299.97564      9665.3825      3016.0368      12681.419      68200.21       87120        
     49400   49400          496.07996      297.78644      9528.421       2994.026       12522.447      67663.51       87120        
     49500   49500          497.08306      295.25061      9546.1269      2968.53        12514.657      67538.729      87120        
     49600   49600          498.09117      298.19354      9528.8336      2998.1191      12526.953      67429.472      87120        
     49700   49700          499.07844      298.72216      9553.0289      3003.434       12556.463      67584.355      87120        
     49800   49800          500.07067      303.22397      9505.1437      3048.6964      12553.84       67498.907      87120        
     49900   49900          501.077        295.69813      9495.8884      2973.0295      12468.918      67488.293      87120        
     50000   50000          502.08803      296.40586      9510.4248      2980.1452      12490.57       67503.402      87120        
     50100   50100          503.09335      297.88051      9488.108       2994.9717      12483.08       67319.963      87120        
     50200   50200          504.11194      304.46613      9569.2392      3061.1853      12630.425      67641.455      87120        
     50300   50300          505.12554      301.58907      9552.2004      3032.2586      12584.459      67623.355      87120        
     50400   50400          506.12076      297.31927      9513.9135      2989.3289      12503.242      67500.827      87120        
     50500   50500          507.11916      291.87451      9485.4771      2934.5858      12420.063      67354.397      87120        
     50600   50600          508.1049       307.59966      9510.8805      3092.6907      12603.571      67414.696      87120        
     50700   50700          509.11374      301.01642      9388.5521      3026.501       12415.053      66960.634      87120        
     50800   50800          510.125        295.75297      9398.0783      2973.5809      12371.659      66948.262      87120        
     50900   50900          511.11646      305.65983      9465.557       3073.1872      12538.744      67297.533      87120        
     51000   51000          512.1129       297.24952      9490.639       2988.6277      12479.267      67416.183      87120        
     51100   51100          513.09223      304.20231      9498.9038      3058.5329      12557.437      67437.282      87120        
     51200   51200          514.07361      301.82243      9551.6842      3034.6049      12586.289      67566.161      87120        
     51300   51300          515.07648      291.65343      9498.612       2932.363       12430.975      67300.007      87120        
     51400   51400          516.06575      301.56884      9506.9933      3032.0552      12539.049      67402.189      87120        
     51500   51500          517.05523      304.29697      9540.4633      3059.4846      12599.948      67653.827      87120        
     51600   51600          518.05097      296.22851      9546.6254      2978.3621      12524.987      67665.5        87120        
     51700   51700          519.06523      305.83891      9511.5664      3074.9877      12586.554      67551.116      87120        
     51800   51800          520.05221      301.47344      9565.9777      3031.0961      12597.074      67623.905      87120        
     51900   51900          521.04404      294.57086      9536.5313      2961.6956      12498.227      67527.139      87120        
     52000   52000          522.03559      296.94519      9515.557       2985.5677      12501.125      67493.602      87120        
     52100   52100          523.01797      298.49967      9542.8461      3001.197       12544.043      67615.068      87120        
     52200   52200          524.00713      296.20618      9465.853       2978.1376      12443.991      67363.122      87120        
     52300   52300          525.00575      309.41106      9481.0008      3110.9031      12591.904      67418.839      87120        
     52400   52400          525.99722      303.50767      9456.5541      3051.5487      12508.103      67205.984      87120        
     52500   52500          526.98635      304.3658       9456.3308      3060.1766      12516.507      67202.36       87120        
     52600   52600          527.98121      299.20003      9496.7432      3008.2386      12504.982      67354.898      87120        
     52700   52700          528.97597      290.54836      9477.8748      2921.2524      12399.127      67299.721      87120        
     52800   52800          529.96343      297.87773      9498.5961      2994.9438      12493.54       67356.56       87120        
     52900   52900          530.97489      305.55001      9494.0389      3072.083       12566.122      67392.867      87120        
     53000   53000          531.96941      305.27848      9491.4594      3069.353       12560.812      67383.099      87120        
     53100   53100          532.94741      294.26325      9522.0992      2958.6028      12480.702      67447.711      87120        
     53200   53200          533.92394      299.11818      9507.3999      3007.4157      12514.816      67510.365      87120        
     53300   53300          534.90911      304.02821      9498.2903      3056.7824      12555.073      67440.448      87120        
     53400   53400          535.89737      299.04028      9507.135       3006.6324      12513.767      67360.82       87120        
     53500   53500          536.90464      296.63433      9445.0021      2982.4423      12427.444      67069.479      87120        
     53600   53600          537.87706      304.27508      9462.4906      3059.2645      12521.755      67219.316      87120        
     53700   53700          538.87189      306.66889      9470.3365      3083.3325      12553.669      67292.636      87120        
     53800   53800          539.86143      300.37939      9446.7166      3020.0962      12466.813      67185.097      87120        
     53900   53900          540.84737      302.73501      9462.244       3043.7802      12506.024      67141.239      87120        
     54000   54000          541.83185      294.62787      9381.6363      2962.2689      12343.905      66849.683      87120        
     54100   54100          542.80108      303.16916      9426.5242      3048.1453      12474.67       67017.172      87120        
     54200   54200          543.78286      301.9599       9424.8267      3035.987       12460.814      67190.279      87120        
     54300   54300          544.78055      301.78327      9472.6726      3034.2111      12506.884      67402.576      87120        
     54400   54400          545.76818      300.00178      9497.029       3016.2996      12513.329      67389.686      87120        
     54500   54500          546.76374      309.40028      9508.0935      3110.7946      12618.888      67392.508      87120        
     54600   54600          547.7501       296.70155      9510.6887      2983.1182      12493.807      67379.63       87120        
     54700   54700          548.718        301.62076      9498.8255      3032.5773      12531.403      67446.645      87120        
     54800   54800          549.70062      301.02002      9542.298       3026.5372      12568.835      67559.321      87120        
     54900   54900          550.68668      293.28421      9501.7394      2948.7593      12450.499      67370.815      87120        
     55000   55000          551.67279      296.27363      9450.7176      2978.8158      12429.533      67240.6        87120        
     55100   55100          552.65462      305.48001      9493.0243      3071.3792      12564.403      67372.057      87120        
     55200   55200          553.62503      302.69272      9521.3324      3043.355       12564.687      67461.335      87120        
     55300   55300          554.59717      298.72478      9492.4673      3003.4603      12495.928      67406.674      87120        
     55400   55400          555.55745      296.46365      9502.4819      2980.7262      12483.208      67442.386      87120        
     55500   55500          556.53907      299.90411      9482.4312      3015.3175      12497.749      67311.756      87120        
     55600   55600          557.50958      302.02765      9458.5277      3036.6683      12495.196      67248.016      87120        
     55700   55700          558.49825      300.59598      9472.6688      3022.2738      12494.943      67275.07       87120        
     55800   55800          559.47394      301.93135      9508.0412      3035.7         12543.741      67394.774      87120        
     55900   55900          560.45948      295.61783      9451.3101      2972.2222      12423.532      67180.125      87120        
     56000   56000          561.44233      303.8308       9493.4957      3054.7976      12548.293      67371.485      87120        
     56100   56100          562.41383      287.80624      9470.047       2893.6823      12363.729      67312.187      87120        
     56200   56200          563.39119      298.57265      9489.2304      3001.9307      12491.161      67324.094      87120        
     56300   56300          564.37351      299.58335      9470.9805      3012.0926      12483.073      67233.921      87120        
     56400   56400          565.3536       303.22681      9458.8141      3048.7249      12507.539      67197.44       87120        
     56500   56500          566.3299       302.19915      9497.5234      3038.3925      12535.916      67417.24       87120        
     56600   56600          567.31025      301.21418      9473.4965      3028.4894      12501.986      67314.596      87120        
     56700   56700          568.29295      301.33747      9483.6889      3029.729       12513.418      67300.435      87120        
     56800   56800          569.28005      299.25448      9483.5259      3008.7861      12492.312      67306.505      87120        
     56900   56900          570.26942      299.21813      9426.4184      3008.4206      12434.839      67085.834      87120        
     57000   57000          571.2582       298.59736      9467.6685      3002.1792      12469.848      67340.18       87120        
[...]
    986200   986200         8433.4         296.33776      9085.5368      2979.4605      12064.997      65206.525      87120        
    986300   986300         8434.2058      299.40889      9086.0001      3010.3385      12096.339      65095.232      87120        
    986400   986400         8435.0288      302.18967      9098.8719      3038.2972      12137.169      65286.274      87120        
    986500   986500         8435.8492      300.27357      9079.3653      3019.0323      12098.398      65299.319      87120        
    986600   986600         8436.6669      302.85688      9062.8416      3045.0056      12107.847      65239.641      87120        
    986700   986700         8437.4779      295.46719      9073.0792      2970.7075      12043.787      65037.378      87120        
    986800   986800         8438.2985      295.21975      9025.8854      2968.2198      11994.105      64861.377      87120        
    986900   986900         8439.1182      301.02289      9068.5265      3026.5661      12095.093      65295.984      87120        
    987000   987000         8439.9496      300.14503      9012.8681      3017.7399      12030.608      65034.022      87120        
    987100   987100         8440.7647      302.47659      8984.6149      3041.182       12025.797      64851.155      87120        
    987200   987200         8441.5923      301.49267      9000.1201      3031.2894      12031.41       64786.685      87120        
    987300   987300         8442.4064      298.52173      9024.9136      3001.4187      12026.332      64840.936      87120        
    987400   987400         8443.2216      295.36165      9018.092       2969.6465      11987.738      65024.661      87120        
    987500   987500         8444.0456      303.49753      8987.6144      3051.4468      12039.061      64909.11       87120        
    987600   987600         8444.8679      297.65825      9037.2356      2992.7371      12029.973      64968.394      87120        
    987700   987700         8445.699       294.91074      9004.0325      2965.1129      11969.145      64805.781      87120        
    987800   987800         8446.5206      306.35193      9030.6467      3080.1458      12110.792      65038.52       87120        
    987900   987900         8447.3394      301.35639      9011.2346      3029.9192      12041.154      64984.409      87120        
    988000   988000         8448.1597      297.93138      9059.8881      2995.4832      12055.371      65119.324      87120        
    988100   988100         8448.9721      299.24772      9059.1889      3008.7181      12067.907      65017.265      87120        
    988200   988200         8449.7758      302.04714      9123.9511      3036.8642      12160.815      65311.937      87120        
    988300   988300         8450.598       305.89439      9057.6688      3075.5455      12133.214      65203.075      87120        
    988400   988400         8451.4189      290.3869       9111.681       2919.629       12031.31       65290.982      87120        
    988500   988500         8452.2229      297.98433      9061.9197      2996.0156      12057.935      65097.368      87120        
    988600   988600         8453.0428      304.08433      9040.9393      3057.3467      12098.286      64985.853      87120        
    988700   988700         8453.848       299.93654      9062.6206      3015.6437      12078.264      64922.325      87120        
    988800   988800         8454.6689      298.13961      9044.9788      2997.5769      12042.556      64907.133      87120        
    988900   988900         8455.4812      295.67278      9057.6908      2972.7746      12030.465      65063.49       87120        
    989000   989000         8456.3053      301.78036      9016.5482      3034.1819      12050.73       64906.63       87120        
    989100   989100         8457.1121      296.539        9069.3497      2981.4838      12050.834      65055.533      87120        
    989200   989200         8457.9185      304.73952      9035.1993      3063.9341      12099.133      64889          87120        
    989300   989300         8458.7223      301.92866      9010.6577      3035.673       12046.331      64850.955      87120        
    989400   989400         8459.5405      303.13446      9079.1345      3047.7964      12126.931      65188.625      87120        
    989500   989500         8460.3486      298.98042      9062.1897      3006.0306      12068.22       65081.95       87120        
    989600   989600         8461.1727      297.12529      9064.0435      2987.3785      12051.422      65109.125      87120        
    989700   989700         8461.9838      305.8353       9092.4383      3074.9513      12167.39       65198.196      87120        
    989800   989800         8462.8083      308.18633      9072.4141      3098.5893      12171.003      65244.11       87120        
    989900   989900         8463.6328      298.46437      9088.1473      3000.8421      12088.989      65221.763      87120        
    990000   990000         8464.4496      305.76919      9106.643       3074.2867      12180.93       65183.845      87120        
    990100   990100         8465.2538      309.99803      9140.9942      3116.8046      12257.799      65278.314      87120        
    990200   990200         8466.0589      300.61822      9045.5574      3022.4975      12068.055      65001.867      87120        
    990300   990300         8466.8766      297.6677       9001.4121      2992.8321      11994.244      64898.737      87120        
    990400   990400         8467.6958      299.10274      9024.0416      3007.2604      12031.302      64962.318      87120        
    990500   990500         8468.5048      300.85715      9020.3723      3024.8997      12045.272      64879.859      87120        
    990600   990600         8469.3416      291.21432      9022.4514      2927.9481      11950.4        64979.167      87120        
    990700   990700         8470.1556      296.63453      9005.8953      2982.4444      11988.34       64872.981      87120        
    990800   990800         8470.9727      292.09925      8963.2997      2936.8454      11900.145      64668.87       87120        
    990900   990900         8471.7946      303.38054      9024.4397      3050.2706      12074.71       64947.539      87120        
    991000   991000         8472.6178      301.78594      9066.5936      3034.238       12100.832      65154.982      87120        
    991100   991100         8473.4278      302.93042      9051.4601      3045.745       12097.205      65139.027      87120        
    991200   991200         8474.251       296.4189       9063.5463      2980.2763      12043.823      65259.134      87120        
    991300   991300         8475.0728      293.58192      9091.0056      2951.7526      12042.758      65136.447      87120        
    991400   991400         8475.8991      294.87207      9047.5019      2964.7241      12012.226      64973.386      87120        
    991500   991500         8476.7247      301.26934      9071.5506      3029.044       12100.595      65192.217      87120        
    991600   991600         8477.5359      296.26783      9106.3732      2978.7574      12085.131      65269.409      87120        
    991700   991700         8478.365       295.5753       9078.2068      2971.7945      12050.001      65139.701      87120        
    991800   991800         8479.1849      295.28225      9054.0346      2968.8482      12022.883      65030.662      87120        
    991900   991900         8479.9927      298.21092      9064.3284      2998.2938      12062.622      65085.893      87120        
    992000   992000         8480.8234      301.9592       9045.3123      3035.98        12081.292      65077.163      87120        
    992100   992100         8481.6383      302.0359       9045.2107      3036.7512      12081.962      65089.006      87120        
    992200   992200         8482.4524      298.59068      9009.1054      3002.112       12011.217      64891.493      87120        
    992300   992300         8483.2786      304.79847      9043.0371      3064.5268      12107.564      65036.072      87120        
    992400   992400         8484.098       295.07226      9059.1741      2966.7368      12025.911      65035.949      87120        
    992500   992500         8484.9256      309.52463      9045.8504      3112.0449      12157.895      64963.865      87120        
    992600   992600         8485.742       299.1094       9081.5084      3007.3273      12088.836      65171.173      87120        
    992700   992700         8486.5599      286.98469      9042.9678      2885.4222      11928.39       64943.969      87120        
    992800   992800         8487.3783      301.80378      9059.8887      3034.4174      12094.306      65097.084      87120        
    992900   992900         8488.204       305.14931      9108.7873      3068.0543      12176.842      65377.017      87120        
    993000   993000         8489.0307      300.61878      9060.5968      3022.503       12083.1        65314.477      87120        
    993100   993100         8489.8488      301.45221      9051.4009      3030.8826      12082.283      65217.712      87120        
    993200   993200         8490.6654      302.13091      9063.2477      3037.7064      12100.954      65085.108      87120        
    993300   993300         8491.4848      300.7458       9074.8358      3023.7802      12098.616      65120.778      87120        
    993400   993400         8492.3067      307.10129      9047.5379      3087.68        12135.218      65233.835      87120        
    993500   993500         8493.1276      299.63039      9058.1116      3012.5655      12070.677      65275.237      87120        
    993600   993600         8493.9462      298.79843      9097.507       3004.2008      12101.708      65181.082      87120        
    993700   993700         8494.7538      305.59141      9091.1486      3072.4992      12163.648      65051.464      87120        
    993800   993800         8495.5748      294.10961      9050.9573      2957.0581      12008.015      65062.98       87120        
    993900   993900         8496.3917      297.70126      8980.4789      2993.1695      11973.648      64890.873      87120        
    994000   994000         8497.2076      303.15092      8956.1954      3047.9619      12004.157      64715.944      87120        
    994100   994100         8498.0184      299.52109      8995.7084      3011.4666      12007.175      64725.4        87120        
    994200   994200         8498.8295      292.11239      8993.9889      2936.9775      11930.966      64754.188      87120        
    994300   994300         8499.6444      306.40543      9006.0904      3080.6836      12086.774      64897.23       87120        
    994400   994400         8500.4604      299.71336      9060.7669      3013.3997      12074.167      65162.602      87120        
    994500   994500         8501.2654      296.81405      9027.3094      2984.2493      12011.559      64955.654      87120        
    994600   994600         8502.0835      300.64854      9081.8485      3022.8023      12104.651      65085.279      87120        
    994700   994700         8502.9023      302.19915      9110.9028      3038.3925      12149.295      65277.663      87120        
    994800   994800         8503.7124      303.79588      9073.4836      3054.4465      12127.93       65205.596      87120        
    994900   994900         8504.5372      302.84748      9060.9508      3044.911       12105.862      65253.737      87120        
    995000   995000         8505.3597      299.50476      9068.7999      3011.3024      12080.102      65180.826      87120        
    995100   995100         8506.1752      299.64242      9092.6237      3012.6864      12105.31       65183.043      87120        
    995200   995200         8507.0067      305.37249      9079.5141      3070.2981      12149.812      65190.353      87120        
    995300   995300         8507.8258      296.05187      9040.7258      2976.5861      12017.312      65027.979      87120        
    995400   995400         8508.6457      304.43931      9071.6042      3060.9157      12132.52       65190.442      87120        
    995500   995500         8509.4657      302.7922       9060.0508      3044.3552      12104.406      65133.755      87120        
    995600   995600         8510.272       302.15059      9030.8396      3037.9043      12068.744      65045.396      87120        
    995700   995700         8511.0913      297.37998      9047.8983      2989.9392      12037.838      65067.854      87120        
    995800   995800         8511.9213      301.04065      9049.305       3026.7446      12076.05       65035.821      87120        
    995900   995900         8512.7413      299.97657      9010.7566      3016.0461      12026.803      64917.063      87120        
    996000   996000         8513.5591      298.73994      8955.6366      3003.6127      11959.249      64651.406      87120        
    996100   996100         8514.3807      305.19686      8988.1635      3068.5323      12056.696      64822.073      87120        
    996200   996200         8515.1916      302.31602      9026.0002      3039.5675      12065.568      64970.112      87120        
    996300   996300         8516.0078      297.25733      9029.6248      2988.7061      12018.331      64987.929      87120        
    996400   996400         8516.8411      298.21905      8999.7107      2998.3756      11998.086      64804.711      87120        
    996500   996500         8517.6614      300.54605      9007.0427      3021.7718      12028.814      64863.917      87120        
    996600   996600         8518.4791      301.32179      9030.3833      3029.5713      12059.955      64982.532      87120        
    996700   996700         8519.3041      301.05999      9036.9308      3026.9391      12063.87       65080.152      87120        
    996800   996800         8520.1316      299.69043      9120.7532      3013.1692      12133.922      65420.326      87120        
    996900   996900         8520.9547      293.44265      9110.8555      2950.3523      12061.208      65237.854      87120        
    997000   997000         8521.7853      305.89267      9072.9908      3075.5282      12148.519      65142.685      87120        
    997100   997100         8522.6008      299.16805      9063.0036      3007.917       12070.921      65202.125      87120        
    997200   997200         8523.4343      299.34659      9024.9375      3009.7121      12034.65       65132.354      87120        
    997300   997300         8524.2523      295.51532      9018.8607      2971.1915      11990.052      65032.421      87120        
    997400   997400         8525.0683      296.56409      9009.809       2981.7361      11991.545      64988.364      87120        
    997500   997500         8525.8909      304.19806      9005.8901      3058.4902      12064.38       64975.807      87120        
    997600   997600         8526.7168      303.05163      9009.2681      3046.9636      12056.232      64962.586      87120        
    997700   997700         8527.5348      295.80429      9018.9936      2974.0969      11993.09       64991.954      87120        
    997800   997800         8528.3514      302.44395      8988.7682      3040.8538      12029.622      64875.579      87120        
    997900   997900         8529.1678      302.98601      9033.9674      3046.3038      12080.271      64898.015      87120        
    998000   998000         8529.9944      293.42428      9021.8839      2950.1676      11972.051      64749.755      87120        
    998100   998100         8530.8037      302.86744      9070.7522      3045.1118      12115.864      65040.621      87120        
    998200   998200         8531.6157      301.23927      9050.3771      3028.7417      12079.119      65095.659      87120        
    998300   998300         8532.4282      292.52154      9076.5661      2941.0912      12017.657      65264.685      87120        
    998400   998400         8533.2408      299.21456      9084.4526      3008.3847      12092.837      65203.632      87120        
    998500   998500         8534.0545      303.82933      9060.1713      3054.7828      12114.954      65049.05       87120        
    998600   998600         8534.8602      301.63782      9079.6536      3032.7488      12112.402      65110.188      87120        
    998700   998700         8535.6775      303.74437      9046.8334      3053.9286      12100.762      65127.796      87120        
    998800   998800         8536.5039      293.78807      9055.4738      2953.8253      12009.299      65169.133      87120        
    998900   998900         8537.325       299.20128      9117.1113      3008.2511      12125.362      65257.597      87120        
    999000   999000         8538.1482      311.553        9073.8513      3132.4387      12206.29       65243.849      87120        
    999100   999100         8538.9758      297.92043      9075.7791      2995.3731      12071.152      65241.417      87120        
    999200   999200         8539.7803      301.98564      9046.3332      3036.2458      12082.579      65122.896      87120        
    999300   999300         8540.5975      299.59684      9055.2697      3012.2282      12067.498      64984.868      87120        
    999400   999400         8541.4178      292.42857      9076.0889      2940.1564      12016.245      65198.166      87120        
    999500   999500         8542.2347      292.34593      9050.1858      2939.3256      11989.511      65134.055      87120        
    999600   999600         8543.0372      303.77904      9024.3382      3054.2771      12078.615      64975.717      87120        
    999700   999700         8543.8523      302.92201      9006.2148      3045.6604      12051.875      64872.053      87120        
    999800   999800         8544.656       302.01207      9040.7045      3036.5116      12077.216      65043.92       87120        
    999900   999900         8545.4718      294.72527      8989.4374      2963.2481      11952.686      64953.88       87120        
   1000000   1000000        8546.2857      298.95415      9059.6327      3005.7664      12065.399      65166.742      87120        
Loop time of 8546.29 on 8 procs for 1000000 steps with 4369 atoms

Performance: 10.110 ns/day, 2.374 hours/ns, 117.010 timesteps/s, 511.216 katom-step/s
98.9% CPU use with 8 MPI tasks x no OpenMP threads

MPI task timing breakdown:
Section |  min time  |  avg time  |  max time  |%varavg| %total
---------------------------------------------------------------
Pair    | 58.823     | 2378.9     | 7063.3     |5637.2 | 27.84
Bond    | 7.3162     | 35.095     | 47.537     | 271.9 |  0.41
Neigh   | 906.83     | 910.35     | 914.22     |   8.6 | 10.65
Comm    | 259.62     | 4905.7     | 7215.5     |3889.6 | 57.40
Output  | 1.8037     | 1.9278     | 2.1711     |   7.9 |  0.02
Modify  | 227.43     | 272.11     | 358.66     | 246.8 |  3.18
Other   |            | 42.11      |            |       |  0.49

Nlocal:        546.125 ave        1316 max           0 min
Histogram: 2 0 1 3 0 0 0 0 0 2
Nghost:        4759.88 ave        6952 max        2036 min
Histogram: 2 0 0 0 2 0 0 2 0 2
Neighs:         168838 ave      485195 max           0 min
Histogram: 2 2 2 0 0 0 0 0 0 2

Total # of neighbors = 1350700
Ave neighs/atom = 309.15541
Ave special neighs/atom = 6.3401236
Neighbor list builds = 75420
Dangerous builds = 0
unfix                  mynvt


write_data             nvt_2ns.data
System init for write_data ...
Generated 21 of 21 mixed pair_coeff terms from arithmetic mixing rule
WARNING: Dihedrals are defined but no dihedral style is set (../force.cpp:207)
WARNING: Likewise 1-4 special neighbor interactions != 1.0 (../force.cpp:209)
WARNING: Impropers are defined but no improper style is set (../force.cpp:212)
Total wall time: 2:22:26
