
     Program PWSCF v.7.3.1 starts on  4Nov2024 at 22: 0: 0 

     This program is part of the open-source Quantum ESPRESSO suite
     for quantum simulation of materials; please cite
         "P. Giannozzi et al., J. Phys.:Condens. Matter 21 395502 (2009);
         "P. Giannozzi et al., J. Phys.:Condens. Matter 29 465901 (2017);
         "P. Giannozzi et al., J. Chem. Phys. 152 154105 (2020);
          URL http://www.quantum-espresso.org", 
     in publications or presentations arising from this work. More details at
     http://www.quantum-espresso.org/quote

     Parallel version (MPI), running on     1 processors

     MPI processes distributed on     1 nodes
     11839 MiB available memory on the printing compute node when the environment starts

     Waiting for input...
     Reading input from standard input

     Current dimensions of program PWSCF are:
     Max number of different atomic species (ntypx) = 10
     Max number of k-points (npk) =  40000
     Max angular momentum in pseudopotentials (lmaxx) =  4

     Subspace diagonalization in iterative solution of the eigenvalue problem:
     a serial algorithm will be used


     G-vector sticks info
     --------------------
     sticks:   dense  smooth     PW     G-vecs:    dense   smooth      PW
     Sum         139     139     55                 1067     1067     259

     Using Slab Decomposition



     bravais-lattice index     =            2
     lattice parameter (alat)  =       7.0800  a.u.
     unit-cell volume          =      88.7237 (a.u.)^3
     number of atoms/cell      =            1
     number of atomic types    =            1
     number of electrons       =        10.00
     number of Kohn-Sham states=           10
     kinetic-energy cutoff     =      20.0000  Ry
     charge density cutoff     =      80.0000  Ry
     scf convergence threshold =      1.0E-08
     mixing beta               =       0.7000
     number of iterations used =            8  plain     mixing
     Exchange-correlation=  SLA  PZ   NOGX NOGC
                           (   1   1   0   0   0   0   0)
     Non magnetic calculation with spin-orbit


     celldm(1)=   7.080000  celldm(2)=   0.000000  celldm(3)=   0.000000
     celldm(4)=   0.000000  celldm(5)=   0.000000  celldm(6)=   0.000000

     crystal axes: (cart. coord. in units of alat)
               a(1) = (  -0.500000   0.000000   0.500000 )  
               a(2) = (   0.000000   0.500000   0.500000 )  
               a(3) = (  -0.500000   0.500000   0.000000 )  

     reciprocal axes: (cart. coord. in units 2 pi/alat)
               b(1) = ( -1.000000 -1.000000  1.000000 )  
               b(2) = (  1.000000  1.000000  1.000000 )  
               b(3) = ( -1.000000  1.000000 -1.000000 )  


     PseudoPot. # 1 for Pt read from file:
     /home/dashlander/Desktop/Sem7/CPD/Assignment_3/pseudo/Pt.rel-pz-n-rrkjus.UPF
     MD5 check sum: 4baafe8ec1942611396c7a5466f52249
     Pseudo is Ultrasoft + core correction, Zval = 10.0
     Generated by new atomic code, or converted to UPF format
     Using radial grid of 1277 points,  6 beta functions with: 
                l(1) =   2
                l(2) =   2
                l(3) =   2
                l(4) =   2
                l(5) =   1
                l(6) =   1
     Q(r) pseudized with 0 coefficients 


     atomic species   valence    mass     pseudopotential
     Pt               10.00   195.08400     Pt( 1.00)

     48 Sym. Ops., with inversion, found



   Cartesian axes

     site n.     atom                  positions (alat units)
         1        Pt     tau(   1) = (   0.0000000   0.0000000   0.0000000  )

     number of k points=    35
                       cart. coord. in units 2pi/alat
        k(    1) = (   0.0000000   0.0000000   0.0000000), wk =   0.0013717
        k(    2) = (  -0.1111111   0.1111111  -0.1111111), wk =   0.0109739
        k(    3) = (  -0.2222222   0.2222222  -0.2222222), wk =   0.0109739
        k(    4) = (  -0.3333333   0.3333333  -0.3333333), wk =   0.0109739
        k(    5) = (  -0.4444444   0.4444444  -0.4444444), wk =   0.0109739
        k(    6) = (   0.0000000   0.2222222   0.0000000), wk =   0.0082305
        k(    7) = (  -0.1111111   0.3333333  -0.1111111), wk =   0.0329218
        k(    8) = (  -0.2222222   0.4444444  -0.2222222), wk =   0.0329218
        k(    9) = (  -0.3333333   0.5555556  -0.3333333), wk =   0.0329218
        k(   10) = (   0.5555556  -0.3333333   0.5555556), wk =   0.0329218
        k(   11) = (   0.4444444  -0.2222222   0.4444444), wk =   0.0329218
        k(   12) = (   0.3333333  -0.1111111   0.3333333), wk =   0.0329218
        k(   13) = (   0.2222222  -0.0000000   0.2222222), wk =   0.0164609
        k(   14) = (   0.0000000   0.4444444   0.0000000), wk =   0.0082305
        k(   15) = (  -0.1111111   0.5555556  -0.1111111), wk =   0.0329218
        k(   16) = (  -0.2222222   0.6666667  -0.2222222), wk =   0.0329218
        k(   17) = (   0.6666667  -0.2222222   0.6666667), wk =   0.0329218
        k(   18) = (   0.5555556  -0.1111111   0.5555556), wk =   0.0329218
        k(   19) = (   0.4444444   0.0000000   0.4444444), wk =   0.0164609
        k(   20) = (   0.0000000   0.6666667   0.0000000), wk =   0.0082305
        k(   21) = (  -0.1111111   0.7777778  -0.1111111), wk =   0.0329218
        k(   22) = (   0.7777778  -0.1111111   0.7777778), wk =   0.0329218
        k(   23) = (   0.6666667  -0.0000000   0.6666667), wk =   0.0164609
        k(   24) = (   0.0000000   0.8888889   0.0000000), wk =   0.0082305
        k(   25) = (   0.8888889   0.0000000   0.8888889), wk =   0.0164609
        k(   26) = (  -0.2222222   0.4444444   0.0000000), wk =   0.0329218
        k(   27) = (  -0.3333333   0.5555556  -0.1111111), wk =   0.0658436
        k(   28) = (   0.5555556  -0.3333333   0.7777778), wk =   0.0658436
        k(   29) = (  -0.2222222   0.6666667   0.0000000), wk =   0.0329218
        k(   30) = (   0.6666667  -0.2222222   0.8888889), wk =   0.0658436
        k(   31) = (   0.5555556  -0.1111111   0.7777778), wk =   0.0658436
        k(   32) = (   0.4444444   0.0000000   0.6666667), wk =   0.0329218
        k(   33) = (   0.7777778  -0.1111111   1.0000000), wk =   0.0329218
        k(   34) = (   0.6666667  -0.0000000   0.8888889), wk =   0.0329218
        k(   35) = (   0.5555556  -0.1111111   1.0000000), wk =   0.0329218

     Dense  grid:     1067 G-vectors     FFT dimensions: (  15,  15,  15)

     Estimated max dynamical RAM per process >      10.54 MB

     Check: negative core charge=   -0.000032

     Initial potential from superposition of free atoms

     starting charge       9.9999, renormalised to      10.0000

     negative rho (up, down):  1.010E-04 0.000E+00
     Starting wfcs are   12 randomized atomic wfcs

     total cpu time spent up to now is        0.4 secs

     Self-consistent Calculation

     iteration #  1     ecut=    20.00 Ry     beta= 0.70
     Davidson diagonalization with overlap
     ethr =  1.00E-02,  avg # of iterations =  2.3

     Threshold (ethr) on eigenvalues was too large:
     Diagonalizing with lowered threshold

     Davidson diagonalization with overlap
     ethr =  1.14E-05,  avg # of iterations =  7.9

     negative rho (up, down):  2.030E-04 0.000E+00

     total cpu time spent up to now is        0.9 secs

     total energy              =     -69.42534091 Ry
     estimated scf accuracy    <       0.00444093 Ry

     iteration #  2     ecut=    20.00 Ry     beta= 0.70
     Davidson diagonalization with overlap
     ethr =  4.44E-05,  avg # of iterations =  2.1

     negative rho (up, down):  2.319E-04 0.000E+00

     total cpu time spent up to now is        1.1 secs

     total energy              =     -69.42644839 Ry
     estimated scf accuracy    <       0.00036337 Ry

     iteration #  3     ecut=    20.00 Ry     beta= 0.70
     Davidson diagonalization with overlap
     ethr =  3.63E-06,  avg # of iterations =  2.1

     negative rho (up, down):  2.512E-04 0.000E+00

     total cpu time spent up to now is        1.3 secs

     total energy              =     -69.42650559 Ry
     estimated scf accuracy    <       0.00001228 Ry

     iteration #  4     ecut=    20.00 Ry     beta= 0.70
     Davidson diagonalization with overlap
     ethr =  1.23E-07,  avg # of iterations =  6.1

     negative rho (up, down):  2.515E-04 0.000E+00

     total cpu time spent up to now is        1.6 secs

     total energy              =     -69.42651995 Ry
     estimated scf accuracy    <       0.00000144 Ry

     iteration #  5     ecut=    20.00 Ry     beta= 0.70
     Davidson diagonalization with overlap
     ethr =  1.44E-08,  avg # of iterations =  3.3

     negative rho (up, down):  2.523E-04 0.000E+00

     total cpu time spent up to now is        1.8 secs

     total energy              =     -69.42652019 Ry
     estimated scf accuracy    <       0.00000012 Ry

     iteration #  6     ecut=    20.00 Ry     beta= 0.70
     Davidson diagonalization with overlap
     ethr =  1.15E-09,  avg # of iterations =  4.3

     negative rho (up, down):  2.524E-04 0.000E+00

     total cpu time spent up to now is        2.0 secs

     End of self-consistent calculation

          k = 0.0000 0.0000 0.0000 (   137 PWs)   bands (ev):

     9.4758   9.4758  16.3180  16.3180  16.3180  16.3180  17.2850  17.2850
    19.5747  19.5747

          k =-0.1111 0.1111-0.1111 (   135 PWs)   bands (ev):

    10.0284  10.0284  16.2296  16.2296  16.4635  16.4635  17.4271  17.4271
    19.3754  19.3754

          k =-0.2222 0.2222-0.2222 (   138 PWs)   bands (ev):

    11.3946  11.3946  16.0774  16.0774  16.5833  16.5833  17.7620  17.7620
    19.3022  19.3022

          k =-0.3333 0.3333-0.3333 (   144 PWs)   bands (ev):

    12.4076  12.4076  16.3622  16.3622  17.1530  17.1530  17.4712  17.4712
    20.2555  20.2555

          k =-0.4444 0.4444-0.4444 (   135 PWs)   bands (ev):

    12.5201  12.5201  16.1169  16.1169  17.1189  17.1189  19.5725  19.5725
    21.1671  21.1671

          k = 0.0000 0.2222 0.0000 (   137 PWs)   bands (ev):

    10.2150  10.2150  16.0126  16.0126  16.6634  16.6634  17.5413  17.5413
    19.0578  19.0578

          k =-0.1111 0.3333-0.1111 (   138 PWs)   bands (ev):

    11.3517  11.3517  15.6341  15.6341  16.8461  16.8461  17.9749  17.9749
    18.8648  18.8648

          k =-0.2222 0.4444-0.2222 (   140 PWs)   bands (ev):

    12.6449  12.6449  15.8800  15.8800  16.5062  16.5062  17.7929  17.7929
    20.0570  20.0570

          k =-0.3333 0.5556-0.3333 (   132 PWs)   bands (ev):

    12.9591  12.9591  16.0693  16.0693  17.1971  17.1971  17.7731  17.7731
    21.4766  21.4766

          k = 0.5556-0.3333 0.5556 (   129 PWs)   bands (ev):

    12.9632  12.9632  15.9742  15.9742  17.1625  17.1625  18.5849  18.5849
    21.3778  21.3778

          k = 0.4444-0.2222 0.4444 (   139 PWs)   bands (ev):

    12.9875  12.9875  16.2025  16.2025  17.1340  17.1340  17.4566  17.4566
    20.2663  20.2663

          k = 0.3333-0.1111 0.3333 (   140 PWs)   bands (ev):

    12.3249  12.3249  15.7858  15.7858  16.6529  16.6529  17.8811  17.8811
    19.0082  19.0082

          k = 0.2222-0.0000 0.2222 (   141 PWs)   bands (ev):

    10.8846  10.8846  15.9220  15.9220  16.6910  16.6910  17.7515  17.7515
    18.9155  18.9155

          k = 0.0000 0.4444 0.0000 (   133 PWs)   bands (ev):

    12.0576  12.0576  14.9963  14.9963  17.1980  17.1980  18.6584  18.6584
    18.6824  18.6824

          k =-0.1111 0.5556-0.1111 (   139 PWs)   bands (ev):

    13.0886  13.0886  14.6298  14.6298  16.9174  16.9174  18.8838  18.8838
    20.0824  20.0824

          k =-0.2222 0.6667-0.2222 (   136 PWs)   bands (ev):

    13.5855  13.5855  15.0790  15.0790  16.6364  16.6364  18.5972  18.5972
    21.6330  21.6330

          k = 0.6667-0.2222 0.6667 (   132 PWs)   bands (ev):

    13.8073  13.8073  15.3692  15.3692  16.9868  16.9868  18.2873  18.2873
    21.4665  21.4665

          k = 0.5556-0.1111 0.5556 (   131 PWs)   bands (ev):

    14.1403  14.1403  15.6131  15.6131  16.5240  16.5240  18.0931  18.0931
    20.2994  20.2994

          k = 0.4444 0.0000 0.4444 (   136 PWs)   bands (ev):

    13.8004  13.8004  15.4702  15.4702  16.2747  16.2747  18.1532  18.1532
    19.0714  19.0714

          k = 0.0000 0.6667 0.0000 (   129 PWs)   bands (ev):

    13.0764  13.0764  13.9287  13.9287  18.4244  18.4244  20.1640  20.1640
    20.3030  20.3030

          k =-0.1111 0.7778-0.1111 (   133 PWs)   bands (ev):

    13.1750  13.1750  13.7972  13.7972  18.6154  18.6154  20.2896  20.2896
    21.7147  21.7147

          k = 0.7778-0.1111 0.7778 (   131 PWs)   bands (ev):

    13.5073  13.5073  14.3880  14.3880  17.8643  17.8643  19.7798  19.7798
    21.7165  21.7165

          k = 0.6667-0.0000 0.6667 (   136 PWs)   bands (ev):

    14.1247  14.1247  15.2406  15.2406  16.7336  16.7336  19.0551  19.0551
    20.8479  20.8479

          k = 0.0000 0.8889 0.0000 (   129 PWs)   bands (ev):

    12.7034  12.7034  13.2982  13.2982  21.2117  21.2117  21.3163  21.3163
    22.1460  22.1460

          k = 0.8889 0.0000 0.8889 (   130 PWs)   bands (ev):

    12.8814  12.8814  13.4828  13.4828  19.9787  19.9787  21.0047  21.0047
    22.1810  22.1810

          k =-0.2222 0.4444 0.0000 (   137 PWs)   bands (ev):

    12.5892  12.5892  15.1977  15.1977  16.6845  16.6845  18.5323  18.5323
    18.8483  18.8483

          k =-0.3333 0.5556-0.1111 (   138 PWs)   bands (ev):

    13.6569  13.6569  15.5313  15.5313  16.0867  16.0867  18.3176  18.3176
    20.0871  20.0871

          k = 0.5556-0.3333 0.7778 (   134 PWs)   bands (ev):

    13.7354  13.7354  15.5340  15.5340  16.9308  16.9308  18.0507  18.0507
    21.2133  21.2133

          k =-0.2222 0.6667 0.0000 (   135 PWs)   bands (ev):

    13.6776  13.6776  14.3265  14.3265  16.8937  16.8937  19.9561  19.9561
    20.2902  20.2902

          k = 0.6667-0.2222 0.8889 (   129 PWs)   bands (ev):

    14.0020  14.0020  14.7461  14.7461  16.6220  16.6220  19.4472  19.4472
    21.4052  21.4052

          k = 0.5556-0.1111 0.7778 (   131 PWs)   bands (ev):

    14.4462  14.4462  15.0585  15.0585  16.3877  16.3877  18.9016  18.9016
    21.2810  21.2810

          k = 0.4444 0.0000 0.6667 (   130 PWs)   bands (ev):

    14.9319  14.9319  15.2336  15.2336  15.4628  15.4628  18.9255  18.9255
    20.3541  20.3541

          k = 0.7778-0.1111 1.0000 (   127 PWs)   bands (ev):

    13.2597  13.2597  13.7920  13.7920  18.5968  18.5968  20.6494  20.6494
    21.9688  21.9688

          k = 0.6667-0.0000 0.8889 (   131 PWs)   bands (ev):

    13.7526  13.7526  14.4798  14.4798  17.4631  17.4631  19.7180  19.7180
    21.9404  21.9404

          k = 0.5556-0.1111 1.0000 (   135 PWs)   bands (ev):

    14.3148  14.3148  15.2187  15.2187  16.0694  16.0694  19.2101  19.2101
    21.9124  21.9124

     highest occupied level (ev):    22.1810

!    total energy              =     -69.42652026 Ry
     estimated scf accuracy    <          4.1E-09 Ry

     The total energy is the sum of the following terms:
     one-electron contribution =      21.02461171 Ry
     hartree contribution      =       3.05187188 Ry
     xc contribution           =     -28.74506492 Ry
     ewald contribution        =     -64.75793893 Ry

     convergence has been achieved in   6 iterations

     negative rho (up, down):  2.524E-04 0.000E+00

     Forces acting on atoms (cartesian axes, Ry/au):

     atom    1 type  1   force =     0.00000000    0.00000000    0.00000000

     Total force =     0.000000     Total SCF correction =     0.000000


     Computing stress (Cartesian axis) and pressure


     negative rho (up, down):  2.524E-04 0.000E+00
          total   stress  (Ry/bohr**3)                   (kbar)     P=      683.35
   0.00464534   0.00000000   0.00000000          683.35        0.00        0.00
   0.00000000   0.00464534  -0.00000000            0.00      683.35       -0.00
   0.00000000  -0.00000000   0.00464534            0.00       -0.00      683.35


     Writing all to output data dir ./platinum.save/ :
     XML data file, charge density, pseudopotentials, collected wavefunctions

     init_run     :      0.24s CPU      0.28s WALL (       1 calls)
     electrons    :      1.45s CPU      1.62s WALL (       1 calls)
     forces       :      0.03s CPU      0.03s WALL (       1 calls)
     stress       :      0.13s CPU      0.13s WALL (       1 calls)

     Called by init_run:
     wfcinit      :      0.05s CPU      0.07s WALL (       1 calls)
     potinit      :      0.01s CPU      0.01s WALL (       1 calls)
     hinit0       :      0.16s CPU      0.18s WALL (       1 calls)

     Called by electrons:
     c_bands      :      1.15s CPU      1.31s WALL (       7 calls)
     sum_band     :      0.24s CPU      0.25s WALL (       7 calls)
     v_of_rho     :      0.00s CPU      0.00s WALL (       7 calls)
     newd         :      0.07s CPU      0.07s WALL (       7 calls)
     mix_rho      :      0.00s CPU      0.00s WALL (       7 calls)

     Called by c_bands:
     init_us_2    :      0.02s CPU      0.02s WALL (     595 calls)
     cegterg      :      1.08s CPU      1.24s WALL (     245 calls)

     Called by *egterg:
     cdiaghg      :      0.08s CPU      0.09s WALL (    1196 calls)
     h_psi        :      0.66s CPU      0.77s WALL (    1266 calls)
     s_psi        :      0.10s CPU      0.11s WALL (    1266 calls)
     g_psi        :      0.01s CPU      0.01s WALL (     986 calls)

     Called by h_psi:
     h_psi:calbec :      0.07s CPU      0.09s WALL (    1266 calls)
     vloc_psi     :      0.48s CPU      0.55s WALL (    1266 calls)
     add_vuspsi   :      0.09s CPU      0.11s WALL (    1266 calls)

     General routines
     calbec       :      0.10s CPU      0.12s WALL (    1686 calls)
     fft          :      0.02s CPU      0.03s WALL (      79 calls)
     ffts         :      0.00s CPU      0.00s WALL (      28 calls)
     fftw         :      0.36s CPU      0.42s WALL (   41980 calls)

     Parallel routines

     PWSCF        :      1.95s CPU      2.18s WALL


   This run was terminated on:  22: 0: 2   4Nov2024            

=------------------------------------------------------------------------------=
   JOB DONE.
=------------------------------------------------------------------------------=
