
     Program PWSCF v.7.3.1 starts on  4Nov2024 at 22: 1:38 

     This program is part of the open-source Quantum ESPRESSO suite
     for quantum simulation of materials; please cite
         "P. Giannozzi et al., J. Phys.:Condens. Matter 21 395502 (2009);
         "P. Giannozzi et al., J. Phys.:Condens. Matter 29 465901 (2017);
         "P. Giannozzi et al., J. Chem. Phys. 152 154105 (2020);
          URL http://www.quantum-espresso.org", 
     in publications or presentations arising from this work. More details at
     http://www.quantum-espresso.org/quote

     Parallel version (MPI), running on     1 processors

     MPI processes distributed on     1 nodes
     11849 MiB available memory on the printing compute node when the environment starts

     Waiting for input...
     Reading input from standard input

     Current dimensions of program PWSCF are:
     Max number of different atomic species (ntypx) = 10
     Max number of k-points (npk) =  40000
     Max angular momentum in pseudopotentials (lmaxx) =  4

     Subspace diagonalization in iterative solution of the eigenvalue problem:
     a serial algorithm will be used


     G-vector sticks info
     --------------------
     sticks:   dense  smooth     PW     G-vecs:    dense   smooth      PW
     Sum         163     163     61                 1291     1291     331

     Using Slab Decomposition



     bravais-lattice index     =            2
     lattice parameter (alat)  =       7.5600  a.u.
     unit-cell volume          =     108.0203 (a.u.)^3
     number of atoms/cell      =            1
     number of atomic types    =            1
     number of electrons       =        10.00
     number of Kohn-Sham states=           10
     kinetic-energy cutoff     =      20.0000  Ry
     charge density cutoff     =      80.0000  Ry
     scf convergence threshold =      1.0E-08
     mixing beta               =       0.7000
     number of iterations used =            8  plain     mixing
     Exchange-correlation=  SLA  PZ   NOGX NOGC
                           (   1   1   0   0   0   0   0)
     Non magnetic calculation with spin-orbit


     celldm(1)=   7.560000  celldm(2)=   0.000000  celldm(3)=   0.000000
     celldm(4)=   0.000000  celldm(5)=   0.000000  celldm(6)=   0.000000

     crystal axes: (cart. coord. in units of alat)
               a(1) = (  -0.500000   0.000000   0.500000 )  
               a(2) = (   0.000000   0.500000   0.500000 )  
               a(3) = (  -0.500000   0.500000   0.000000 )  

     reciprocal axes: (cart. coord. in units 2 pi/alat)
               b(1) = ( -1.000000 -1.000000  1.000000 )  
               b(2) = (  1.000000  1.000000  1.000000 )  
               b(3) = ( -1.000000  1.000000 -1.000000 )  


     PseudoPot. # 1 for Pt read from file:
     /home/dashlander/Desktop/Sem7/CPD/Assignment_3/pseudo/Pt.rel-pz-n-rrkjus.UPF
     MD5 check sum: 4baafe8ec1942611396c7a5466f52249
     Pseudo is Ultrasoft + core correction, Zval = 10.0
     Generated by new atomic code, or converted to UPF format
     Using radial grid of 1277 points,  6 beta functions with: 
                l(1) =   2
                l(2) =   2
                l(3) =   2
                l(4) =   2
                l(5) =   1
                l(6) =   1
     Q(r) pseudized with 0 coefficients 


     atomic species   valence    mass     pseudopotential
     Pt               10.00   195.08400     Pt( 1.00)

     48 Sym. Ops., with inversion, found



   Cartesian axes

     site n.     atom                  positions (alat units)
         1        Pt     tau(   1) = (   0.0000000   0.0000000   0.0000000  )

     number of k points=    35
                       cart. coord. in units 2pi/alat
        k(    1) = (   0.0000000   0.0000000   0.0000000), wk =   0.0013717
        k(    2) = (  -0.1111111   0.1111111  -0.1111111), wk =   0.0109739
        k(    3) = (  -0.2222222   0.2222222  -0.2222222), wk =   0.0109739
        k(    4) = (  -0.3333333   0.3333333  -0.3333333), wk =   0.0109739
        k(    5) = (  -0.4444444   0.4444444  -0.4444444), wk =   0.0109739
        k(    6) = (   0.0000000   0.2222222   0.0000000), wk =   0.0082305
        k(    7) = (  -0.1111111   0.3333333  -0.1111111), wk =   0.0329218
        k(    8) = (  -0.2222222   0.4444444  -0.2222222), wk =   0.0329218
        k(    9) = (  -0.3333333   0.5555556  -0.3333333), wk =   0.0329218
        k(   10) = (   0.5555556  -0.3333333   0.5555556), wk =   0.0329218
        k(   11) = (   0.4444444  -0.2222222   0.4444444), wk =   0.0329218
        k(   12) = (   0.3333333  -0.1111111   0.3333333), wk =   0.0329218
        k(   13) = (   0.2222222  -0.0000000   0.2222222), wk =   0.0164609
        k(   14) = (   0.0000000   0.4444444   0.0000000), wk =   0.0082305
        k(   15) = (  -0.1111111   0.5555556  -0.1111111), wk =   0.0329218
        k(   16) = (  -0.2222222   0.6666667  -0.2222222), wk =   0.0329218
        k(   17) = (   0.6666667  -0.2222222   0.6666667), wk =   0.0329218
        k(   18) = (   0.5555556  -0.1111111   0.5555556), wk =   0.0329218
        k(   19) = (   0.4444444   0.0000000   0.4444444), wk =   0.0164609
        k(   20) = (   0.0000000   0.6666667   0.0000000), wk =   0.0082305
        k(   21) = (  -0.1111111   0.7777778  -0.1111111), wk =   0.0329218
        k(   22) = (   0.7777778  -0.1111111   0.7777778), wk =   0.0329218
        k(   23) = (   0.6666667  -0.0000000   0.6666667), wk =   0.0164609
        k(   24) = (   0.0000000   0.8888889   0.0000000), wk =   0.0082305
        k(   25) = (   0.8888889   0.0000000   0.8888889), wk =   0.0164609
        k(   26) = (  -0.2222222   0.4444444   0.0000000), wk =   0.0329218
        k(   27) = (  -0.3333333   0.5555556  -0.1111111), wk =   0.0658436
        k(   28) = (   0.5555556  -0.3333333   0.7777778), wk =   0.0658436
        k(   29) = (  -0.2222222   0.6666667   0.0000000), wk =   0.0329218
        k(   30) = (   0.6666667  -0.2222222   0.8888889), wk =   0.0658436
        k(   31) = (   0.5555556  -0.1111111   0.7777778), wk =   0.0658436
        k(   32) = (   0.4444444   0.0000000   0.6666667), wk =   0.0329218
        k(   33) = (   0.7777778  -0.1111111   1.0000000), wk =   0.0329218
        k(   34) = (   0.6666667  -0.0000000   0.8888889), wk =   0.0329218
        k(   35) = (   0.5555556  -0.1111111   1.0000000), wk =   0.0329218

     Dense  grid:     1291 G-vectors     FFT dimensions: (  15,  15,  15)

     Estimated max dynamical RAM per process >      12.48 MB

     Check: negative core charge=   -0.000073

     Initial potential from superposition of free atoms

     starting charge       9.9999, renormalised to      10.0000

     negative rho (up, down):  1.955E-04 0.000E+00
     Starting wfcs are   12 randomized atomic wfcs

     total cpu time spent up to now is        0.4 secs

     Self-consistent Calculation

     iteration #  1     ecut=    20.00 Ry     beta= 0.70
     Davidson diagonalization with overlap
     ethr =  1.00E-02,  avg # of iterations =  2.1

     Threshold (ethr) on eigenvalues was too large:
     Diagonalizing with lowered threshold

     Davidson diagonalization with overlap
     ethr =  2.65E-05,  avg # of iterations =  7.1

     negative rho (up, down):  2.784E-04 0.000E+00

     total cpu time spent up to now is        1.0 secs

     total energy              =     -69.45577902 Ry
     estimated scf accuracy    <       0.00361992 Ry

     iteration #  2     ecut=    20.00 Ry     beta= 0.70
     Davidson diagonalization with overlap
     ethr =  3.62E-05,  avg # of iterations =  2.2

     negative rho (up, down):  3.021E-04 0.000E+00

     total cpu time spent up to now is        1.2 secs

     total energy              =     -69.45671474 Ry
     estimated scf accuracy    <       0.00044490 Ry

     iteration #  3     ecut=    20.00 Ry     beta= 0.70
     Davidson diagonalization with overlap
     ethr =  4.45E-06,  avg # of iterations =  2.0

     negative rho (up, down):  3.198E-04 0.000E+00

     total cpu time spent up to now is        1.4 secs

     total energy              =     -69.45678740 Ry
     estimated scf accuracy    <       0.00001381 Ry

     iteration #  4     ecut=    20.00 Ry     beta= 0.70
     Davidson diagonalization with overlap
     ethr =  1.38E-07,  avg # of iterations =  6.7

     negative rho (up, down):  3.198E-04 0.000E+00

     total cpu time spent up to now is        1.7 secs

     total energy              =     -69.45684592 Ry
     estimated scf accuracy    <       0.00000071 Ry

     iteration #  5     ecut=    20.00 Ry     beta= 0.70
     Davidson diagonalization with overlap
     c_bands:  1 eigenvalues not converged
     ethr =  7.14E-09,  avg # of iterations =  5.4

     negative rho (up, down):  3.200E-04 0.000E+00

     total cpu time spent up to now is        1.9 secs

     total energy              =     -69.45688614 Ry
     estimated scf accuracy    <       0.00001341 Ry

     iteration #  6     ecut=    20.00 Ry     beta= 0.70
     Davidson diagonalization with overlap
     ethr =  7.14E-09,  avg # of iterations =  3.0

     negative rho (up, down):  3.202E-04 0.000E+00

     total cpu time spent up to now is        2.2 secs

     total energy              =     -69.45688400 Ry
     estimated scf accuracy    <       0.00002396 Ry

     iteration #  7     ecut=    20.00 Ry     beta= 0.70
     Davidson diagonalization with overlap
     ethr =  7.14E-09,  avg # of iterations =  2.0

     negative rho (up, down):  3.203E-04 0.000E+00

     total cpu time spent up to now is        2.4 secs

     total energy              =     -69.45688178 Ry
     estimated scf accuracy    <       0.00001810 Ry

     iteration #  8     ecut=    20.00 Ry     beta= 0.70
     Davidson diagonalization with overlap
     ethr =  7.14E-09,  avg # of iterations =  2.3

     negative rho (up, down):  3.203E-04 0.000E+00

     total cpu time spent up to now is        2.6 secs

     total energy              =     -69.45687966 Ry
     estimated scf accuracy    <       0.00001220 Ry

     iteration #  9     ecut=    20.00 Ry     beta= 0.70
     Davidson diagonalization with overlap
     ethr =  7.14E-09,  avg # of iterations =  2.8

     negative rho (up, down):  3.203E-04 0.000E+00

     total cpu time spent up to now is        2.8 secs

     total energy              =     -69.45687957 Ry
     estimated scf accuracy    <       0.00000640 Ry

     iteration # 10     ecut=    20.00 Ry     beta= 0.70
     Davidson diagonalization with overlap
     ethr =  7.14E-09,  avg # of iterations =  1.0

     negative rho (up, down):  3.203E-04 0.000E+00

     total cpu time spent up to now is        3.0 secs

     total energy              =     -69.45687980 Ry
     estimated scf accuracy    <       0.00000553 Ry

     iteration # 11     ecut=    20.00 Ry     beta= 0.70
     Davidson diagonalization with overlap
     ethr =  7.14E-09,  avg # of iterations =  1.0

     negative rho (up, down):  3.203E-04 0.000E+00

     total cpu time spent up to now is        3.1 secs

     total energy              =     -69.45687812 Ry
     estimated scf accuracy    <       0.00000590 Ry

     iteration # 12     ecut=    20.00 Ry     beta= 0.70
     Davidson diagonalization with overlap
     ethr =  7.14E-09,  avg # of iterations =  2.4

     negative rho (up, down):  3.204E-04 0.000E+00

     total cpu time spent up to now is        3.3 secs

     total energy              =     -69.45687769 Ry
     estimated scf accuracy    <       0.00000196 Ry

     iteration # 13     ecut=    20.00 Ry     beta= 0.70
     Davidson diagonalization with overlap
     ethr =  7.14E-09,  avg # of iterations =  2.4

     negative rho (up, down):  3.204E-04 0.000E+00

     total cpu time spent up to now is        3.6 secs

     total energy              =     -69.45687758 Ry
     estimated scf accuracy    <       0.00000041 Ry

     iteration # 14     ecut=    20.00 Ry     beta= 0.70
     Davidson diagonalization with overlap
     ethr =  4.10E-09,  avg # of iterations =  3.3

     negative rho (up, down):  3.204E-04 0.000E+00

     total cpu time spent up to now is        3.8 secs

     total energy              =     -69.45687784 Ry
     estimated scf accuracy    <       0.00000014 Ry

     iteration # 15     ecut=    20.00 Ry     beta= 0.70
     Davidson diagonalization with overlap
     ethr =  1.36E-09,  avg # of iterations =  2.1

     negative rho (up, down):  3.204E-04 0.000E+00

     total cpu time spent up to now is        4.0 secs

     total energy              =     -69.45687786 Ry
     estimated scf accuracy    <       0.00000017 Ry

     iteration # 16     ecut=    20.00 Ry     beta= 0.70
     Davidson diagonalization with overlap
     ethr =  1.36E-09,  avg # of iterations =  1.0

     negative rho (up, down):  3.204E-04 0.000E+00

     total cpu time spent up to now is        4.1 secs

     total energy              =     -69.45687780 Ry
     estimated scf accuracy    <       0.00000016 Ry

     iteration # 17     ecut=    20.00 Ry     beta= 0.70
     Davidson diagonalization with overlap
     ethr =  1.36E-09,  avg # of iterations =  1.2

     negative rho (up, down):  3.204E-04 0.000E+00

     total cpu time spent up to now is        4.3 secs

     total energy              =     -69.45687780 Ry
     estimated scf accuracy    <       0.00000005 Ry

     iteration # 18     ecut=    20.00 Ry     beta= 0.70
     Davidson diagonalization with overlap
     ethr =  5.10E-10,  avg # of iterations =  2.0

     negative rho (up, down):  3.204E-04 0.000E+00

     total cpu time spent up to now is        4.5 secs

     total energy              =     -69.45687781 Ry
     estimated scf accuracy    <       0.00000003 Ry

     iteration # 19     ecut=    20.00 Ry     beta= 0.70
     Davidson diagonalization with overlap
     ethr =  3.02E-10,  avg # of iterations =  1.3

     negative rho (up, down):  3.204E-04 0.000E+00

     total cpu time spent up to now is        4.6 secs

     total energy              =     -69.45687781 Ry
     estimated scf accuracy    <       0.00000004 Ry

     iteration # 20     ecut=    20.00 Ry     beta= 0.70
     Davidson diagonalization with overlap
     ethr =  3.02E-10,  avg # of iterations =  1.0

     negative rho (up, down):  3.204E-04 0.000E+00

     total cpu time spent up to now is        4.8 secs

     total energy              =     -69.45687779 Ry
     estimated scf accuracy    <       0.00000004 Ry

     iteration # 21     ecut=    20.00 Ry     beta= 0.70
     Davidson diagonalization with overlap
     ethr =  3.02E-10,  avg # of iterations =  2.1

     negative rho (up, down):  3.204E-04 0.000E+00

     total cpu time spent up to now is        5.0 secs

     End of self-consistent calculation

          k = 0.0000 0.0000 0.0000 (   169 PWs)   bands (ev):

     6.4867   6.4867  12.2949  12.2949  12.2949  12.2949  13.2992  13.2992
    14.8996  14.8996

          k =-0.1111 0.1111-0.1111 (   168 PWs)   bands (ev):

     6.9443   6.9443  12.2557  12.2557  12.3870  12.3870  13.3986  13.3986
    14.7478  14.7478

          k =-0.2222 0.2222-0.2222 (   162 PWs)   bands (ev):

     8.1232   8.1232  12.1834  12.1834  12.4608  12.4608  13.6569  13.6569
    14.6499  14.6499

          k =-0.3333 0.3333-0.3333 (   153 PWs)   bands (ev):

     9.1581   9.1581  12.3168  12.3168  12.9961  12.9961  13.4494  13.4494
    15.3233  15.3233

          k =-0.4444 0.4444-0.4444 (   162 PWs)   bands (ev):

     9.3823   9.3823  12.1517  12.1517  13.1703  13.1703  15.1088  15.1088
    15.9628  15.9628

          k = 0.0000 0.2222 0.0000 (   165 PWs)   bands (ev):

     7.0992   7.0992  12.1099  12.1099  12.5293  12.5293  13.4644  13.4644
    14.5672  14.5672

          k =-0.1111 0.3333-0.1111 (   162 PWs)   bands (ev):

     8.0646   8.0646  11.8685  11.8685  12.6570  12.6570  13.7869  13.7869
    14.4042  14.4042

          k =-0.2222 0.4444-0.2222 (   158 PWs)   bands (ev):

     9.2783   9.2783  12.0283  12.0283  12.4720  12.4720  13.6637  13.6637
    15.2006  15.2006

          k =-0.3333 0.5556-0.3333 (   160 PWs)   bands (ev):

     9.7110   9.7110  12.1525  12.1525  13.1293  13.1293  13.6300  13.6300
    16.1972  16.1972

          k = 0.5556-0.3333 0.5556 (   163 PWs)   bands (ev):

     9.7451   9.7451  12.0844  12.0844  13.1678  13.1678  14.2521  14.2521
    16.1486  16.1486

          k = 0.4444-0.2222 0.4444 (   163 PWs)   bands (ev):

     9.6853   9.6853  12.2231  12.2231  13.0364  13.0364  13.4150  13.4150
    15.3788  15.3788

          k = 0.3333-0.1111 0.3333 (   161 PWs)   bands (ev):

     8.9352   8.9352  11.9717  11.9717  12.5429  12.5429  13.7368  13.7368
    14.4892  14.4892

          k = 0.2222-0.0000 0.2222 (   164 PWs)   bands (ev):

     7.6637   7.6637  12.0645  12.0645  12.5423  12.5423  13.6277  13.6277
    14.4407  14.4407

          k = 0.0000 0.4444 0.0000 (   165 PWs)   bands (ev):

     8.6877   8.6877  11.4230  11.4230  12.9125  12.9125  14.2404  14.2404
    14.3068  14.3068

          k =-0.1111 0.5556-0.1111 (   162 PWs)   bands (ev):

     9.6734   9.6734  11.1527  11.1527  12.7827  12.7827  14.4034  14.4034
    15.2170  15.2170

          k =-0.2222 0.6667-0.2222 (   164 PWs)   bands (ev):

    10.2529  10.2529  11.4842  11.4842  12.6023  12.6023  14.2007  14.2007
    16.3055  16.3055

          k = 0.6667-0.2222 0.6667 (   166 PWs)   bands (ev):

    10.4501  10.4501  11.7128  11.7128  12.9154  12.9154  13.9922  13.9922
    16.2166  16.2166

          k = 0.5556-0.1111 0.5556 (   164 PWs)   bands (ev):

    10.6510  10.6510  11.8639  11.8639  12.6065  12.6065  13.8127  13.8127
    15.4184  15.4184

          k = 0.4444 0.0000 0.4444 (   162 PWs)   bands (ev):

    10.2108  10.2108  11.7466  11.7466  12.3702  12.3702  13.8533  13.8533
    14.5698  14.5698

          k = 0.0000 0.6667 0.0000 (   170 PWs)   bands (ev):

     9.8315   9.8315  10.6429  10.6429  13.8996  13.8996  15.3238  15.3238
    15.3309  15.3309

          k =-0.1111 0.7778-0.1111 (   164 PWs)   bands (ev):

    10.0179  10.0179  10.5368  10.5368  14.1207  14.1207  15.3790  15.3790
    16.3953  16.3953

          k = 0.7778-0.1111 0.7778 (   170 PWs)   bands (ev):

    10.3110  10.3110  10.9687  10.9687  13.5880  13.5880  15.0160  15.0160
    16.4162  16.4162

          k = 0.6667-0.0000 0.6667 (   172 PWs)   bands (ev):

    10.7601  10.7601  11.5825  11.5825  12.7665  12.7665  14.4845  14.4845
    15.8192  15.8192

          k = 0.0000 0.8889 0.0000 (   162 PWs)   bands (ev):

     9.6920   9.6920  10.1688  10.1688  15.9409  15.9409  16.0564  16.0564
    17.1135  17.1135

          k = 0.8889 0.0000 0.8889 (   166 PWs)   bands (ev):

     9.8445   9.8445  10.3000  10.3000  15.1833  15.1833  15.8359  15.8359
    16.8057  16.8057

          k =-0.2222 0.4444 0.0000 (   164 PWs)   bands (ev):

     9.1399   9.1399  11.5646  11.5646  12.6009  12.6009  14.1749  14.1749
    14.3655  14.3655

          k =-0.3333 0.5556-0.1111 (   162 PWs)   bands (ev):

    10.1828  10.1828  11.7784  11.7784  12.2382  12.2382  13.9937  13.9937
    15.2568  15.2568

          k = 0.5556-0.3333 0.7778 (   165 PWs)   bands (ev):

    10.3548  10.3548  11.8315  11.8315  12.8722  12.8722  13.8348  13.8348
    16.0404  16.0404

          k =-0.2222 0.6667 0.0000 (   164 PWs)   bands (ev):

    10.3045  10.3045  10.9284  10.9284  12.8004  12.8004  15.1456  15.1456
    15.4020  15.4020

          k = 0.6667-0.2222 0.8889 (   162 PWs)   bands (ev):

    10.6521  10.6521  11.2394  11.2394  12.6289  12.6289  14.8060  14.8060
    16.1820  16.1820

          k = 0.5556-0.1111 0.7778 (   164 PWs)   bands (ev):

    10.9868  10.9868  11.4669  11.4669  12.4831  12.4831  14.4189  14.4189
    16.0981  16.0981

          k = 0.4444 0.0000 0.6667 (   161 PWs)   bands (ev):

    11.2285  11.2285  11.5724  11.5724  11.8599  11.8599  14.4194  14.4194
    15.4542  15.4542

          k = 0.7778-0.1111 1.0000 (   166 PWs)   bands (ev):

    10.1262  10.1262  10.5269  10.5269  14.1394  14.1394  15.6263  15.6263
    16.6117  16.6117

          k = 0.6667-0.0000 0.8889 (   166 PWs)   bands (ev):

    10.5151  10.5151  11.0287  11.0287  13.2940  13.2940  14.9904  14.9904
    16.5680  16.5680

          k = 0.5556-0.1111 1.0000 (   163 PWs)   bands (ev):

    10.9440  10.9440  11.5588  11.5588  12.2496  12.2496  14.6485  14.6485
    16.5337  16.5337

     highest occupied level (ev):    17.1135

!    total energy              =     -69.45687779 Ry
     estimated scf accuracy    <          1.9E-09 Ry

     The total energy is the sum of the following terms:
     one-electron contribution =      15.55806583 Ry
     hartree contribution      =       4.11970426 Ry
     xc contribution           =     -28.48832412 Ry
     ewald contribution        =     -60.64632377 Ry

     convergence has been achieved in  21 iterations

     negative rho (up, down):  3.204E-04 0.000E+00

     Forces acting on atoms (cartesian axes, Ry/au):

     atom    1 type  1   force =     0.00000000    0.00000000    0.00000000

     Total force =     0.000000     Total SCF correction =     0.000000


     Computing stress (Cartesian axis) and pressure


     negative rho (up, down):  3.204E-04 0.000E+00
          total   stress  (Ry/bohr**3)                   (kbar)     P=      -85.87
  -0.00058372  -0.00000000  -0.00000000          -85.87       -0.00       -0.00
  -0.00000000  -0.00058372   0.00000000           -0.00      -85.87        0.00
  -0.00000000   0.00000000  -0.00058372           -0.00        0.00      -85.87


     Writing all to output data dir ./platinum.save/ :
     XML data file, charge density, pseudopotentials, collected wavefunctions

     init_run     :      0.26s CPU      0.28s WALL (       1 calls)
     electrons    :      4.18s CPU      4.62s WALL (       1 calls)
     forces       :      0.04s CPU      0.04s WALL (       1 calls)
     stress       :      0.17s CPU      0.17s WALL (       1 calls)

     Called by init_run:
     wfcinit      :      0.06s CPU      0.08s WALL (       1 calls)
     potinit      :      0.01s CPU      0.01s WALL (       1 calls)
     hinit0       :      0.17s CPU      0.18s WALL (       1 calls)

     Called by electrons:
     c_bands      :      3.11s CPU      3.49s WALL (      22 calls)
     sum_band     :      0.81s CPU      0.86s WALL (      22 calls)
     v_of_rho     :      0.00s CPU      0.00s WALL (      22 calls)
     newd         :      0.26s CPU      0.26s WALL (      22 calls)
     mix_rho      :      0.01s CPU      0.01s WALL (      22 calls)

     Called by c_bands:
     init_us_2    :      0.06s CPU      0.07s WALL (    1645 calls)
     cegterg      :      2.86s CPU      3.22s WALL (     770 calls)

     Called by *egterg:
     cdiaghg      :      0.17s CPU      0.19s WALL (    2709 calls)
     h_psi        :      1.70s CPU      1.92s WALL (    2779 calls)
     s_psi        :      0.28s CPU      0.31s WALL (    2779 calls)
     g_psi        :      0.03s CPU      0.03s WALL (    1974 calls)

     Called by h_psi:
     h_psi:calbec :      0.22s CPU      0.25s WALL (    2779 calls)
     vloc_psi     :      1.17s CPU      1.32s WALL (    2779 calls)
     add_vuspsi   :      0.27s CPU      0.31s WALL (    2779 calls)

     General routines
     calbec       :      0.30s CPU      0.34s WALL (    3724 calls)
     fft          :      0.02s CPU      0.03s WALL (     229 calls)
     ffts         :      0.00s CPU      0.00s WALL (      88 calls)
     fftw         :      0.90s CPU      1.02s WALL (  103888 calls)

     Parallel routines

     PWSCF        :      4.74s CPU      5.21s WALL


   This run was terminated on:  22: 1:44   4Nov2024            

=------------------------------------------------------------------------------=
   JOB DONE.
=------------------------------------------------------------------------------=
