
     Program PWSCF v.7.3.1 starts on  4Nov2024 at 13:47: 3 

     This program is part of the open-source Quantum ESPRESSO suite
     for quantum simulation of materials; please cite
         "P. Giannozzi et al., J. Phys.:Condens. Matter 21 395502 (2009);
         "P. Giannozzi et al., J. Phys.:Condens. Matter 29 465901 (2017);
         "P. Giannozzi et al., J. Chem. Phys. 152 154105 (2020);
          URL http://www.quantum-espresso.org", 
     in publications or presentations arising from this work. More details at
     http://www.quantum-espresso.org/quote

     Parallel version (MPI), running on     1 processors

     MPI processes distributed on     1 nodes
     14505 MiB available memory on the printing compute node when the environment starts

     Waiting for input...
     Reading input from standard input

     Current dimensions of program PWSCF are:
     Max number of different atomic species (ntypx) = 10
     Max number of k-points (npk) =  40000
     Max angular momentum in pseudopotentials (lmaxx) =  4

     Subspace diagonalization in iterative solution of the eigenvalue problem:
     a serial algorithm will be used


     G-vector sticks info
     --------------------
     sticks:   dense  smooth     PW     G-vecs:    dense   smooth      PW
     Sum         109     109     43                  749      749     181

     Using Slab Decomposition



     bravais-lattice index     =            2
     lattice parameter (alat)  =       7.3700  a.u.
     unit-cell volume          =     100.0789 (a.u.)^3
     number of atoms/cell      =            1
     number of atomic types    =            1
     number of electrons       =        10.00
     number of Kohn-Sham states=           10
     kinetic-energy cutoff     =      15.0000  Ry
     charge density cutoff     =      60.0000  Ry
     scf convergence threshold =      1.0E-08
     mixing beta               =       0.7000
     number of iterations used =            8  plain     mixing
     Exchange-correlation=  SLA  PZ   NOGX NOGC
                           (   1   1   0   0   0   0   0)
     Non magnetic calculation with spin-orbit


     celldm(1)=   7.370000  celldm(2)=   0.000000  celldm(3)=   0.000000
     celldm(4)=   0.000000  celldm(5)=   0.000000  celldm(6)=   0.000000

     crystal axes: (cart. coord. in units of alat)
               a(1) = (  -0.500000   0.000000   0.500000 )  
               a(2) = (   0.000000   0.500000   0.500000 )  
               a(3) = (  -0.500000   0.500000   0.000000 )  

     reciprocal axes: (cart. coord. in units 2 pi/alat)
               b(1) = ( -1.000000 -1.000000  1.000000 )  
               b(2) = (  1.000000  1.000000  1.000000 )  
               b(3) = ( -1.000000  1.000000 -1.000000 )  


     PseudoPot. # 1 for Pt read from file:
     /home/dashlander/Desktop/Sem7/CPD/Assignment_3/pseudo/Pt.rel-pz-n-rrkjus.UPF
     MD5 check sum: 4baafe8ec1942611396c7a5466f52249
     Pseudo is Ultrasoft + core correction, Zval = 10.0
     Generated by new atomic code, or converted to UPF format
     Using radial grid of 1277 points,  6 beta functions with: 
                l(1) =   2
                l(2) =   2
                l(3) =   2
                l(4) =   2
                l(5) =   1
                l(6) =   1
     Q(r) pseudized with 0 coefficients 


     atomic species   valence    mass     pseudopotential
     Pt               10.00   195.08400     Pt( 1.00)

     48 Sym. Ops., with inversion, found



   Cartesian axes

     site n.     atom                  positions (alat units)
         1        Pt     tau(   1) = (   0.0000000   0.0000000   0.0000000  )

     number of k points=    35
                       cart. coord. in units 2pi/alat
        k(    1) = (   0.0000000   0.0000000   0.0000000), wk =   0.0013717
        k(    2) = (  -0.1111111   0.1111111  -0.1111111), wk =   0.0109739
        k(    3) = (  -0.2222222   0.2222222  -0.2222222), wk =   0.0109739
        k(    4) = (  -0.3333333   0.3333333  -0.3333333), wk =   0.0109739
        k(    5) = (  -0.4444444   0.4444444  -0.4444444), wk =   0.0109739
        k(    6) = (   0.0000000   0.2222222   0.0000000), wk =   0.0082305
        k(    7) = (  -0.1111111   0.3333333  -0.1111111), wk =   0.0329218
        k(    8) = (  -0.2222222   0.4444444  -0.2222222), wk =   0.0329218
        k(    9) = (  -0.3333333   0.5555556  -0.3333333), wk =   0.0329218
        k(   10) = (   0.5555556  -0.3333333   0.5555556), wk =   0.0329218
        k(   11) = (   0.4444444  -0.2222222   0.4444444), wk =   0.0329218
        k(   12) = (   0.3333333  -0.1111111   0.3333333), wk =   0.0329218
        k(   13) = (   0.2222222  -0.0000000   0.2222222), wk =   0.0164609
        k(   14) = (   0.0000000   0.4444444   0.0000000), wk =   0.0082305
        k(   15) = (  -0.1111111   0.5555556  -0.1111111), wk =   0.0329218
        k(   16) = (  -0.2222222   0.6666667  -0.2222222), wk =   0.0329218
        k(   17) = (   0.6666667  -0.2222222   0.6666667), wk =   0.0329218
        k(   18) = (   0.5555556  -0.1111111   0.5555556), wk =   0.0329218
        k(   19) = (   0.4444444   0.0000000   0.4444444), wk =   0.0164609
        k(   20) = (   0.0000000   0.6666667   0.0000000), wk =   0.0082305
        k(   21) = (  -0.1111111   0.7777778  -0.1111111), wk =   0.0329218
        k(   22) = (   0.7777778  -0.1111111   0.7777778), wk =   0.0329218
        k(   23) = (   0.6666667  -0.0000000   0.6666667), wk =   0.0164609
        k(   24) = (   0.0000000   0.8888889   0.0000000), wk =   0.0082305
        k(   25) = (   0.8888889   0.0000000   0.8888889), wk =   0.0164609
        k(   26) = (  -0.2222222   0.4444444   0.0000000), wk =   0.0329218
        k(   27) = (  -0.3333333   0.5555556  -0.1111111), wk =   0.0658436
        k(   28) = (   0.5555556  -0.3333333   0.7777778), wk =   0.0658436
        k(   29) = (  -0.2222222   0.6666667   0.0000000), wk =   0.0329218
        k(   30) = (   0.6666667  -0.2222222   0.8888889), wk =   0.0658436
        k(   31) = (   0.5555556  -0.1111111   0.7777778), wk =   0.0658436
        k(   32) = (   0.4444444   0.0000000   0.6666667), wk =   0.0329218
        k(   33) = (   0.7777778  -0.1111111   1.0000000), wk =   0.0329218
        k(   34) = (   0.6666667  -0.0000000   0.8888889), wk =   0.0329218
        k(   35) = (   0.5555556  -0.1111111   1.0000000), wk =   0.0329218

     Dense  grid:      749 G-vectors     FFT dimensions: (  15,  15,  15)

     Estimated max dynamical RAM per process >       7.74 MB

     Check: negative core charge=   -0.000363

     Initial potential from superposition of free atoms

     starting charge       9.9999, renormalised to      10.0000

     negative rho (up, down):  1.468E-03 0.000E+00
     Starting wfcs are   12 randomized atomic wfcs

     total cpu time spent up to now is        0.3 secs

     Self-consistent Calculation

     iteration #  1     ecut=    15.00 Ry     beta= 0.70
     Davidson diagonalization with overlap
     ethr =  1.00E-02,  avg # of iterations =  2.3

     Threshold (ethr) on eigenvalues was too large:
     Diagonalizing with lowered threshold

     Davidson diagonalization with overlap
     ethr =  2.20E-05,  avg # of iterations =  7.0

     negative rho (up, down):  1.448E-03 0.000E+00

     total cpu time spent up to now is        0.8 secs

     total energy              =     -69.40635755 Ry
     estimated scf accuracy    <       0.01430755 Ry

     iteration #  2     ecut=    15.00 Ry     beta= 0.70
     Davidson diagonalization with overlap
     ethr =  1.43E-04,  avg # of iterations =  2.2

     negative rho (up, down):  1.477E-03 0.000E+00

     total cpu time spent up to now is        1.0 secs

     total energy              =     -69.41070395 Ry
     estimated scf accuracy    <       0.00150684 Ry

     iteration #  3     ecut=    15.00 Ry     beta= 0.70
     Davidson diagonalization with overlap
     ethr =  1.51E-05,  avg # of iterations =  2.1

     negative rho (up, down):  1.490E-03 0.000E+00

     total cpu time spent up to now is        1.1 secs

     total energy              =     -69.41091528 Ry
     estimated scf accuracy    <       0.00006833 Ry

     iteration #  4     ecut=    15.00 Ry     beta= 0.70
     Davidson diagonalization with overlap
     ethr =  6.83E-07,  avg # of iterations =  4.7

     negative rho (up, down):  1.489E-03 0.000E+00

     total cpu time spent up to now is        1.4 secs

     total energy              =     -69.41097259 Ry
     estimated scf accuracy    <       0.00000797 Ry

     iteration #  5     ecut=    15.00 Ry     beta= 0.70
     Davidson diagonalization with overlap
     ethr =  7.97E-08,  avg # of iterations =  4.2

     negative rho (up, down):  1.489E-03 0.000E+00

     total cpu time spent up to now is        1.6 secs

     total energy              =     -69.41097669 Ry
     estimated scf accuracy    <       0.00000007 Ry

     iteration #  6     ecut=    15.00 Ry     beta= 0.70
     Davidson diagonalization with overlap
     c_bands:  2 eigenvalues not converged
     c_bands:  1 eigenvalues not converged
     ethr =  6.89E-10,  avg # of iterations =  7.3

     negative rho (up, down):  1.489E-03 0.000E+00

     total cpu time spent up to now is        1.8 secs

     total energy              =     -69.41097694 Ry
     estimated scf accuracy    <       0.00000004 Ry

     iteration #  7     ecut=    15.00 Ry     beta= 0.70
     Davidson diagonalization with overlap
     ethr =  4.00E-10,  avg # of iterations =  2.4

     negative rho (up, down):  1.489E-03 0.000E+00

     total cpu time spent up to now is        2.0 secs

     End of self-consistent calculation

          k = 0.0000 0.0000 0.0000 (   113 PWs)   bands (ev):

     7.6285   7.6285  13.6217  13.6217  13.6217  13.6217  14.6318  14.6318
    16.4393  16.4393

          k =-0.1111 0.1111-0.1111 (   107 PWs)   bands (ev):

     8.1262   8.1262  13.6003  13.6003  13.7428  13.7428  14.7659  14.7659
    16.3187  16.3187

          k =-0.2222 0.2222-0.2222 (    98 PWs)   bands (ev):

     9.3726   9.3726  13.5326  13.5326  13.8695  13.8695  15.0867  15.0867
    16.2853  16.2853

          k =-0.3333 0.3333-0.3333 (    98 PWs)   bands (ev):

    10.3475  10.3475  13.6952  13.6952  14.4933  14.4933  14.8486  14.8486
    17.0494  17.0494

          k =-0.4444 0.4444-0.4444 (    99 PWs)   bands (ev):

    10.4852  10.4852  13.5105  13.5105  14.5506  14.5506  16.7771  16.7771
    17.7988  17.7988

          k = 0.0000 0.2222 0.0000 (   105 PWs)   bands (ev):

     8.2943   8.2943  13.4125  13.4125  13.9363  13.9363  14.8684  14.8684
    16.1086  16.1086

          k =-0.1111 0.3333-0.1111 (    99 PWs)   bands (ev):

     9.3246   9.3246  13.1699  13.1699  14.0981  14.0981  15.2517  15.2517
    15.9476  15.9476

          k =-0.2222 0.4444-0.2222 (    98 PWs)   bands (ev):

    10.5297  10.5297  13.3858  13.3858  13.8641  13.8641  15.1024  15.1024
    16.8974  16.8974

          k =-0.3333 0.5556-0.3333 (    96 PWs)   bands (ev):

    10.8606  10.8606  13.5200  13.5200  14.5721  14.5721  15.1225  15.1225
    18.0799  18.0799

          k = 0.5556-0.3333 0.5556 (    99 PWs)   bands (ev):

    10.8675  10.8675  13.4242  13.4242  14.5637  14.5637  15.8076  15.8076
    17.9847  17.9847

          k = 0.4444-0.2222 0.4444 (   100 PWs)   bands (ev):

    10.8745  10.8745  13.5736  13.5736  14.5050  14.5050  14.8135  14.8135
    17.0808  17.0808

          k = 0.3333-0.1111 0.3333 (    95 PWs)   bands (ev):

    10.2181  10.2181  13.3321  13.3321  13.9608  13.9608  15.1911  15.1911
    16.0735  16.0735

          k = 0.2222-0.0000 0.2222 (    95 PWs)   bands (ev):

     8.9067   8.9067  13.4395  13.4395  13.9703  13.9703  15.0701  15.0701
    16.0258  16.0258

          k = 0.0000 0.4444 0.0000 (    97 PWs)   bands (ev):

     9.9757   9.9757  12.6345  12.6345  14.4040  14.4040  15.8332  15.8332
    15.8546  15.8546

          k =-0.1111 0.5556-0.1111 (    94 PWs)   bands (ev):

    10.9527  10.9527  12.3656  12.3656  14.2644  14.2644  15.9708  15.9708
    16.9473  16.9473

          k =-0.2222 0.6667-0.2222 (    94 PWs)   bands (ev):

    11.4431  11.4431  12.7540  12.7540  14.0502  14.0502  15.7386  15.7386
    18.1925  18.1925

          k = 0.6667-0.2222 0.6667 (    99 PWs)   bands (ev):

    11.6114  11.6114  12.9831  12.9831  14.3391  14.3391  15.4838  15.4838
    18.0311  18.0311

          k = 0.5556-0.1111 0.5556 (    95 PWs)   bands (ev):

    11.8743  11.8743  13.1744  13.1744  13.9938  13.9938  15.3557  15.3557
    17.1355  17.1355

          k = 0.4444 0.0000 0.4444 (    95 PWs)   bands (ev):

    11.5380  11.5380  13.0527  13.0527  13.7294  13.7294  15.3590  15.3590
    16.1472  16.1472

          k = 0.0000 0.6667 0.0000 (    96 PWs)   bands (ev):

    11.0200  11.0200  11.7909  11.7909  15.5532  15.5532  17.0425  17.0425
    17.0639  17.0639

          k =-0.1111 0.7778-0.1111 (    99 PWs)   bands (ev):

    11.1226  11.1226  11.6684  11.6684  15.7186  15.7186  17.0754  17.0754
    18.2607  18.2607

          k = 0.7778-0.1111 0.7778 (   101 PWs)   bands (ev):

    11.4105  11.4105  12.1474  12.1474  15.0645  15.0645  16.6463  16.6463
    18.2388  18.2388

          k = 0.6667-0.0000 0.6667 (   101 PWs)   bands (ev):

    11.9126  11.9126  12.8480  12.8480  14.1258  14.1258  16.0538  16.0538
    17.5518  17.5518

          k = 0.0000 0.8889 0.0000 (    92 PWs)   bands (ev):

    10.7390  10.7390  11.2936  11.2936  17.8322  17.8322  17.9259  17.9259
    19.0086  19.0086

          k = 0.8889 0.0000 0.8889 (   100 PWs)   bands (ev):

    10.8897  10.8897  11.4046  11.4046  16.8668  16.8668  17.6085  17.6085
    18.6539  18.6539

          k =-0.2222 0.4444 0.0000 (    96 PWs)   bands (ev):

    10.4481  10.4481  12.8419  12.8419  14.0197  14.0197  15.6993  15.6993
    15.9170  15.9170

          k =-0.3333 0.5556-0.1111 (    95 PWs)   bands (ev):

    11.4516  11.4516  13.1039  13.1039  13.5922  13.5922  15.5169  15.5169
    16.9628  16.9628

          k = 0.5556-0.3333 0.7778 (    98 PWs)   bands (ev):

    11.5331  11.5331  13.1266  13.1266  14.2970  14.2970  15.3090  15.3090
    17.8495  17.8495

          k =-0.2222 0.6667 0.0000 (    98 PWs)   bands (ev):

    11.5190  11.5190  12.1047  12.1047  14.2625  14.2625  16.8175  16.8175
    17.0868  17.0868

          k = 0.6667-0.2222 0.8889 (   100 PWs)   bands (ev):

    11.8188  11.8188  12.4514  12.4514  14.0312  14.0312  16.4026  16.4026
    17.9575  17.9575

          k = 0.5556-0.1111 0.7778 (    99 PWs)   bands (ev):

    12.1864  12.1864  12.7088  12.7088  13.8353  13.8353  15.9892  15.9892
    17.8772  17.8772

          k = 0.4444 0.0000 0.6667 (    96 PWs)   bands (ev):

    12.5414  12.5414  12.8495  12.8495  13.1306  13.1306  15.9953  15.9953
    17.1676  17.1676

          k = 0.7778-0.1111 1.0000 (   102 PWs)   bands (ev):

    11.2049  11.2049  11.6483  11.6483  15.6947  15.6947  17.3362  17.3362
    18.4297  18.4297

          k = 0.6667-0.0000 0.8889 (    99 PWs)   bands (ev):

    11.6372  11.6372  12.2241  12.2241  14.7294  14.7294  16.6215  16.6215
    18.4263  18.4263

          k = 0.5556-0.1111 1.0000 (   101 PWs)   bands (ev):

    12.1028  12.1028  12.8208  12.8208  13.5699  13.5699  16.2305  16.2305
    18.3313  18.3313

     highest occupied level (ev):    19.0086

!    total energy              =     -69.41097696 Ry
     estimated scf accuracy    <          1.1E-09 Ry

     The total energy is the sum of the following terms:
     one-electron contribution =      17.71843875 Ry
     hartree contribution      =       3.59344880 Ry
     xc contribution           =     -28.51306684 Ry
     ewald contribution        =     -62.20979766 Ry

     convergence has been achieved in   7 iterations

     negative rho (up, down):  1.489E-03 0.000E+00

     Forces acting on atoms (cartesian axes, Ry/au):

     atom    1 type  1   force =     0.00000000    0.00000000    0.00000000

     Total force =     0.000000     Total SCF correction =     0.000000


     Computing stress (Cartesian axis) and pressure


     negative rho (up, down):  1.489E-03 0.000E+00
          total   stress  (Ry/bohr**3)                   (kbar)     P=     -391.23
  -0.00265950  -0.00000000  -0.00000000         -391.23       -0.00       -0.00
  -0.00000000  -0.00265950   0.00000000           -0.00     -391.23        0.00
  -0.00000000   0.00000000  -0.00265950           -0.00        0.00     -391.23


     Writing all to output data dir ./platinum.save/ :
     XML data file, charge density, pseudopotentials, collected wavefunctions

     init_run     :      0.22s CPU      0.24s WALL (       1 calls)
     electrons    :      1.36s CPU      1.68s WALL (       1 calls)
     forces       :      0.03s CPU      0.03s WALL (       1 calls)
     stress       :      0.09s CPU      0.11s WALL (       1 calls)

     Called by init_run:
     wfcinit      :      0.05s CPU      0.07s WALL (       1 calls)
     potinit      :      0.01s CPU      0.01s WALL (       1 calls)
     hinit0       :      0.15s CPU      0.16s WALL (       1 calls)

     Called by electrons:
     c_bands      :      1.08s CPU      1.34s WALL (       8 calls)
     sum_band     :      0.22s CPU      0.27s WALL (       8 calls)
     v_of_rho     :      0.00s CPU      0.00s WALL (       8 calls)
     newd         :      0.07s CPU      0.07s WALL (       8 calls)
     mix_rho      :      0.00s CPU      0.00s WALL (       8 calls)

     Called by c_bands:
     init_us_2    :      0.01s CPU      0.02s WALL (     665 calls)
     cegterg      :      1.03s CPU      1.28s WALL (     280 calls)

     Called by *egterg:
     cdiaghg      :      0.08s CPU      0.10s WALL (    1373 calls)
     h_psi        :      0.65s CPU      0.81s WALL (    1443 calls)
     s_psi        :      0.08s CPU      0.10s WALL (    1443 calls)
     g_psi        :      0.01s CPU      0.01s WALL (    1128 calls)

     Called by h_psi:
     h_psi:calbec :      0.06s CPU      0.08s WALL (    1443 calls)
     vloc_psi     :      0.49s CPU      0.61s WALL (    1443 calls)
     add_vuspsi   :      0.08s CPU      0.10s WALL (    1443 calls)

     General routines
     calbec       :      0.08s CPU      0.10s WALL (    1898 calls)
     fft          :      0.02s CPU      0.03s WALL (      89 calls)
     ffts         :      0.00s CPU      0.00s WALL (      32 calls)
     fftw         :      0.36s CPU      0.46s WALL (   47728 calls)

     Parallel routines

     PWSCF        :      1.80s CPU      2.17s WALL


   This run was terminated on:  13:47: 5   4Nov2024            

=------------------------------------------------------------------------------=
   JOB DONE.
=------------------------------------------------------------------------------=
