
     Program PWSCF v.7.3.1 starts on  4Nov2024 at 22: 1:16 

     This program is part of the open-source Quantum ESPRESSO suite
     for quantum simulation of materials; please cite
         "P. Giannozzi et al., J. Phys.:Condens. Matter 21 395502 (2009);
         "P. Giannozzi et al., J. Phys.:Condens. Matter 29 465901 (2017);
         "P. Giannozzi et al., J. Chem. Phys. 152 154105 (2020);
          URL http://www.quantum-espresso.org", 
     in publications or presentations arising from this work. More details at
     http://www.quantum-espresso.org/quote

     Parallel version (MPI), running on     1 processors

     MPI processes distributed on     1 nodes
     11781 MiB available memory on the printing compute node when the environment starts

     Waiting for input...
     Reading input from standard input

     Current dimensions of program PWSCF are:
     Max number of different atomic species (ntypx) = 10
     Max number of k-points (npk) =  40000
     Max angular momentum in pseudopotentials (lmaxx) =  4

     Subspace diagonalization in iterative solution of the eigenvalue problem:
     a serial algorithm will be used


     G-vector sticks info
     --------------------
     sticks:   dense  smooth     PW     G-vecs:    dense   smooth      PW
     Sum         151     151     61                 1243     1243     307

     Using Slab Decomposition



     bravais-lattice index     =            2
     lattice parameter (alat)  =       7.4800  a.u.
     unit-cell volume          =     104.6272 (a.u.)^3
     number of atoms/cell      =            1
     number of atomic types    =            1
     number of electrons       =        10.00
     number of Kohn-Sham states=           10
     kinetic-energy cutoff     =      20.0000  Ry
     charge density cutoff     =      80.0000  Ry
     scf convergence threshold =      1.0E-08
     mixing beta               =       0.7000
     number of iterations used =            8  plain     mixing
     Exchange-correlation=  SLA  PZ   NOGX NOGC
                           (   1   1   0   0   0   0   0)
     Non magnetic calculation with spin-orbit


     celldm(1)=   7.480000  celldm(2)=   0.000000  celldm(3)=   0.000000
     celldm(4)=   0.000000  celldm(5)=   0.000000  celldm(6)=   0.000000

     crystal axes: (cart. coord. in units of alat)
               a(1) = (  -0.500000   0.000000   0.500000 )  
               a(2) = (   0.000000   0.500000   0.500000 )  
               a(3) = (  -0.500000   0.500000   0.000000 )  

     reciprocal axes: (cart. coord. in units 2 pi/alat)
               b(1) = ( -1.000000 -1.000000  1.000000 )  
               b(2) = (  1.000000  1.000000  1.000000 )  
               b(3) = ( -1.000000  1.000000 -1.000000 )  


     PseudoPot. # 1 for Pt read from file:
     /home/dashlander/Desktop/Sem7/CPD/Assignment_3/pseudo/Pt.rel-pz-n-rrkjus.UPF
     MD5 check sum: 4baafe8ec1942611396c7a5466f52249
     Pseudo is Ultrasoft + core correction, Zval = 10.0
     Generated by new atomic code, or converted to UPF format
     Using radial grid of 1277 points,  6 beta functions with: 
                l(1) =   2
                l(2) =   2
                l(3) =   2
                l(4) =   2
                l(5) =   1
                l(6) =   1
     Q(r) pseudized with 0 coefficients 


     atomic species   valence    mass     pseudopotential
     Pt               10.00   195.08400     Pt( 1.00)

     48 Sym. Ops., with inversion, found



   Cartesian axes

     site n.     atom                  positions (alat units)
         1        Pt     tau(   1) = (   0.0000000   0.0000000   0.0000000  )

     number of k points=    35
                       cart. coord. in units 2pi/alat
        k(    1) = (   0.0000000   0.0000000   0.0000000), wk =   0.0013717
        k(    2) = (  -0.1111111   0.1111111  -0.1111111), wk =   0.0109739
        k(    3) = (  -0.2222222   0.2222222  -0.2222222), wk =   0.0109739
        k(    4) = (  -0.3333333   0.3333333  -0.3333333), wk =   0.0109739
        k(    5) = (  -0.4444444   0.4444444  -0.4444444), wk =   0.0109739
        k(    6) = (   0.0000000   0.2222222   0.0000000), wk =   0.0082305
        k(    7) = (  -0.1111111   0.3333333  -0.1111111), wk =   0.0329218
        k(    8) = (  -0.2222222   0.4444444  -0.2222222), wk =   0.0329218
        k(    9) = (  -0.3333333   0.5555556  -0.3333333), wk =   0.0329218
        k(   10) = (   0.5555556  -0.3333333   0.5555556), wk =   0.0329218
        k(   11) = (   0.4444444  -0.2222222   0.4444444), wk =   0.0329218
        k(   12) = (   0.3333333  -0.1111111   0.3333333), wk =   0.0329218
        k(   13) = (   0.2222222  -0.0000000   0.2222222), wk =   0.0164609
        k(   14) = (   0.0000000   0.4444444   0.0000000), wk =   0.0082305
        k(   15) = (  -0.1111111   0.5555556  -0.1111111), wk =   0.0329218
        k(   16) = (  -0.2222222   0.6666667  -0.2222222), wk =   0.0329218
        k(   17) = (   0.6666667  -0.2222222   0.6666667), wk =   0.0329218
        k(   18) = (   0.5555556  -0.1111111   0.5555556), wk =   0.0329218
        k(   19) = (   0.4444444   0.0000000   0.4444444), wk =   0.0164609
        k(   20) = (   0.0000000   0.6666667   0.0000000), wk =   0.0082305
        k(   21) = (  -0.1111111   0.7777778  -0.1111111), wk =   0.0329218
        k(   22) = (   0.7777778  -0.1111111   0.7777778), wk =   0.0329218
        k(   23) = (   0.6666667  -0.0000000   0.6666667), wk =   0.0164609
        k(   24) = (   0.0000000   0.8888889   0.0000000), wk =   0.0082305
        k(   25) = (   0.8888889   0.0000000   0.8888889), wk =   0.0164609
        k(   26) = (  -0.2222222   0.4444444   0.0000000), wk =   0.0329218
        k(   27) = (  -0.3333333   0.5555556  -0.1111111), wk =   0.0658436
        k(   28) = (   0.5555556  -0.3333333   0.7777778), wk =   0.0658436
        k(   29) = (  -0.2222222   0.6666667   0.0000000), wk =   0.0329218
        k(   30) = (   0.6666667  -0.2222222   0.8888889), wk =   0.0658436
        k(   31) = (   0.5555556  -0.1111111   0.7777778), wk =   0.0658436
        k(   32) = (   0.4444444   0.0000000   0.6666667), wk =   0.0329218
        k(   33) = (   0.7777778  -0.1111111   1.0000000), wk =   0.0329218
        k(   34) = (   0.6666667  -0.0000000   0.8888889), wk =   0.0329218
        k(   35) = (   0.5555556  -0.1111111   1.0000000), wk =   0.0329218

     Dense  grid:     1243 G-vectors     FFT dimensions: (  15,  15,  15)

     Estimated max dynamical RAM per process >      12.07 MB

     Check: negative core charge=   -0.000055

     Initial potential from superposition of free atoms

     starting charge       9.9999, renormalised to      10.0000

     negative rho (up, down):  1.857E-04 0.000E+00
     Starting wfcs are   12 randomized atomic wfcs

     total cpu time spent up to now is        0.4 secs

     Self-consistent Calculation

     iteration #  1     ecut=    20.00 Ry     beta= 0.70
     Davidson diagonalization with overlap
     ethr =  1.00E-02,  avg # of iterations =  2.1

     Threshold (ethr) on eigenvalues was too large:
     Diagonalizing with lowered threshold

     Davidson diagonalization with overlap
     ethr =  2.45E-05,  avg # of iterations =  6.9

     negative rho (up, down):  2.710E-04 0.000E+00

     total cpu time spent up to now is        0.9 secs

     total energy              =     -69.45671983 Ry
     estimated scf accuracy    <       0.00394649 Ry

     iteration #  2     ecut=    20.00 Ry     beta= 0.70
     Davidson diagonalization with overlap
     ethr =  3.95E-05,  avg # of iterations =  2.1

     negative rho (up, down):  2.954E-04 0.000E+00

     total cpu time spent up to now is        1.1 secs

     total energy              =     -69.45775871 Ry
     estimated scf accuracy    <       0.00046969 Ry

     iteration #  3     ecut=    20.00 Ry     beta= 0.70
     Davidson diagonalization with overlap
     ethr =  4.70E-06,  avg # of iterations =  2.0

     negative rho (up, down):  3.135E-04 0.000E+00

     total cpu time spent up to now is        1.3 secs

     total energy              =     -69.45783339 Ry
     estimated scf accuracy    <       0.00001463 Ry

     iteration #  4     ecut=    20.00 Ry     beta= 0.70
     Davidson diagonalization with overlap
     ethr =  1.46E-07,  avg # of iterations =  6.7

     negative rho (up, down):  3.136E-04 0.000E+00

     total cpu time spent up to now is        1.6 secs

     total energy              =     -69.45785457 Ry
     estimated scf accuracy    <       0.00000360 Ry

     iteration #  5     ecut=    20.00 Ry     beta= 0.70
     Davidson diagonalization with overlap
     ethr =  3.60E-08,  avg # of iterations =  2.9

     negative rho (up, down):  3.139E-04 0.000E+00

     total cpu time spent up to now is        1.8 secs

     total energy              =     -69.45785516 Ry
     estimated scf accuracy    <       0.00000017 Ry

     iteration #  6     ecut=    20.00 Ry     beta= 0.70
     Davidson diagonalization with overlap
     ethr =  1.67E-09,  avg # of iterations =  6.1

     negative rho (up, down):  3.140E-04 0.000E+00

     total cpu time spent up to now is        2.1 secs

     total energy              =     -69.45785534 Ry
     estimated scf accuracy    <       0.00000006 Ry

     iteration #  7     ecut=    20.00 Ry     beta= 0.70
     Davidson diagonalization with overlap
     ethr =  5.67E-10,  avg # of iterations =  3.9

     negative rho (up, down):  3.140E-04 0.000E+00

     total cpu time spent up to now is        2.4 secs

     total energy              =     -69.45785531 Ry
     estimated scf accuracy    <       0.00000020 Ry

     iteration #  8     ecut=    20.00 Ry     beta= 0.70
     Davidson diagonalization with overlap
     ethr =  5.67E-10,  avg # of iterations =  2.7

     negative rho (up, down):  3.140E-04 0.000E+00

     total cpu time spent up to now is        2.6 secs

     End of self-consistent calculation

          k = 0.0000 0.0000 0.0000 (   169 PWs)   bands (ev):

     6.9256   6.9256  12.8884  12.8884  12.8884  12.8884  13.8870  13.8870
    15.5825  15.5825

          k =-0.1111 0.1111-0.1111 (   165 PWs)   bands (ev):

     7.3973   7.3973  12.8429  12.8429  12.9878  12.9878  13.9921  13.9921
    15.4242  15.4242

          k =-0.2222 0.2222-0.2222 (   153 PWs)   bands (ev):

     8.6053   8.6053  12.7593  12.7593  13.0678  13.0678  14.2618  14.2618
    15.3297  15.3297

          k =-0.3333 0.3333-0.3333 (   153 PWs)   bands (ev):

     9.6391   9.6391  12.9133  12.9133  13.6090  13.6090  14.0428  14.0428
    16.0406  16.0406

          k =-0.4444 0.4444-0.4444 (   162 PWs)   bands (ev):

     9.8476   9.8476  12.7371  12.7371  13.7539  13.7539  15.7710  15.7710
    16.7137  16.7137

          k = 0.0000 0.2222 0.0000 (   161 PWs)   bands (ev):

     7.5569   7.5569  12.6874  12.6874  13.1381  13.1381  14.0642  14.0642
    15.2249  15.2249

          k =-0.1111 0.3333-0.1111 (   158 PWs)   bands (ev):

     8.5477   8.5477  12.4267  12.4267  13.2734  13.2734  14.4033  14.4033
    15.0581  15.0581

          k =-0.2222 0.4444-0.2222 (   155 PWs)   bands (ev):

     9.7754   9.7754  12.5976  12.5976  13.0672  13.0672  14.2713  14.2713
    15.9100  15.9100

          k =-0.3333 0.5556-0.3333 (   158 PWs)   bands (ev):

    10.1921  10.1921  12.7329  12.7329  13.7287  13.7287  14.2390  14.2390
    16.9634  16.9634

          k = 0.5556-0.3333 0.5556 (   162 PWs)   bands (ev):

    10.2218  10.2218  12.6607  12.6607  13.7569  13.7569  14.8895  14.8895
    16.9072  16.9072

          k = 0.4444-0.2222 0.4444 (   154 PWs)   bands (ev):

    10.1743  10.1743  12.8114  12.8114  13.6411  13.6411  14.0101  14.0101
    16.0926  16.0926

          k = 0.3333-0.1111 0.3333 (   155 PWs)   bands (ev):

     9.4345   9.4345  12.5359  12.5359  13.1487  13.1487  14.3471  14.3471
    15.1515  15.1515

          k = 0.2222-0.0000 0.2222 (   159 PWs)   bands (ev):

     8.1371   8.1371  12.6357  12.6357  13.1529  13.1529  14.2348  14.2348
    15.0966  15.0966

          k = 0.0000 0.4444 0.0000 (   161 PWs)   bands (ev):

     9.1836   9.1836  11.9540  11.9540  13.5430  13.5430  14.8920  14.8920
    14.9459  14.9459

          k =-0.1111 0.5556-0.1111 (   156 PWs)   bands (ev):

    10.1786  10.1786  11.6693  11.6693  13.3926  13.3926  15.0599  15.0599
    15.9286  15.9286

          k =-0.2222 0.6667-0.2222 (   156 PWs)   bands (ev):

    10.7478  10.7478  12.0178  12.0178  13.1957  13.1957  14.8455  14.8455
    17.0799  17.0799

          k = 0.6667-0.2222 0.6667 (   155 PWs)   bands (ev):

    10.9484  10.9484  12.2563  12.2563  13.5126  13.5126  14.6228  14.6228
    16.9803  16.9803

          k = 0.5556-0.1111 0.5556 (   161 PWs)   bands (ev):

    11.1671  11.1671  12.4216  12.4216  13.1815  13.1815  14.4417  14.4417
    16.1301  16.1301

          k = 0.4444 0.0000 0.4444 (   158 PWs)   bands (ev):

    10.7393  10.7393  12.2975  12.2975  12.9487  12.9487  14.4845  14.4845
    15.2297  15.2297

          k = 0.0000 0.6667 0.0000 (   153 PWs)   bands (ev):

    10.3146  10.3146  11.1325  11.1325  14.5670  14.5670  16.0311  16.0311
    16.0579  16.0579

          k =-0.1111 0.7778-0.1111 (   162 PWs)   bands (ev):

    10.4884  10.4884  11.0222  11.0222  14.7807  14.7807  16.0960  16.0960
    17.1660  17.1660

          k = 0.7778-0.1111 0.7778 (   160 PWs)   bands (ev):

    10.7879  10.7879  11.4763  11.4763  14.2154  14.2154  15.7138  15.7138
    17.1868  17.1868

          k = 0.6667-0.0000 0.6667 (   164 PWs)   bands (ev):

    11.2612  11.2612  12.1246  12.1246  13.3477  13.3477  15.1553  15.1553
    16.5516  16.5516

          k = 0.0000 0.8889 0.0000 (   154 PWs)   bands (ev):

    10.1419  10.1419  10.6357  10.6357  16.7059  16.7059  16.8279  16.8279
    17.8911  17.8911

          k = 0.8889 0.0000 0.8889 (   154 PWs)   bands (ev):

    10.2986  10.2986  10.7741  10.7741  15.8872  15.8872  16.5898  16.5898
    17.5862  17.5862

          k =-0.2222 0.4444 0.0000 (   154 PWs)   bands (ev):

     9.6483   9.6483  12.1036  12.1036  13.2045  13.2045  14.8137  14.8137
    15.0236  15.0236

          k =-0.3333 0.5556-0.1111 (   155 PWs)   bands (ev):

    10.6966  10.6966  12.3335  12.3335  12.8074  12.8074  14.6283  14.6283
    15.9631  15.9631

          k = 0.5556-0.3333 0.7778 (   159 PWs)   bands (ev):

    10.8553  10.8553  12.3825  12.3825  13.4679  13.4679  14.4542  14.4542
    16.7940  16.7940

          k =-0.2222 0.6667 0.0000 (   152 PWs)   bands (ev):

    10.8060  10.8060  11.4334  11.4334  13.4032  13.4032  15.8508  15.8508
    16.1165  16.1165

          k = 0.6667-0.2222 0.8889 (   161 PWs)   bands (ev):

    11.1506  11.1506  11.7597  11.7597  13.2155  13.2155  15.4854  15.4854
    16.9403  16.9403

          k = 0.5556-0.1111 0.7778 (   158 PWs)   bands (ev):

    11.5018  11.5018  11.9991  11.9991  13.0561  13.0561  15.0766  15.0766
    16.8522  16.8522

          k = 0.4444 0.0000 0.6667 (   160 PWs)   bands (ev):

    11.7751  11.7751  12.1167  12.1167  12.3910  12.3910  15.0802  15.0802
    16.1681  16.1681

          k = 0.7778-0.1111 1.0000 (   163 PWs)   bands (ev):

    10.5937  10.5937  11.0126  11.0126  14.7934  14.7934  16.3590  16.3590
    17.3881  17.3881

          k = 0.6667-0.0000 0.8889 (   158 PWs)   bands (ev):

    10.9981  10.9981  11.5405  11.5405  13.9058  13.9058  15.6832  15.6832
    17.3487  17.3487

          k = 0.5556-0.1111 1.0000 (   160 PWs)   bands (ev):

    11.4467  11.4467  12.1011  12.1011  12.8098  12.8098  15.3175  15.3175
    17.3135  17.3135

     highest occupied level (ev):    17.8911

!    total energy              =     -69.45785535 Ry
     estimated scf accuracy    <          4.8E-11 Ry

     The total energy is the sum of the following terms:
     one-electron contribution =      16.43224463 Ry
     hartree contribution      =       3.92455802 Ry
     xc contribution           =     -28.51971046 Ry
     ewald contribution        =     -61.29494755 Ry

     convergence has been achieved in   8 iterations

     negative rho (up, down):  3.140E-04 0.000E+00

     Forces acting on atoms (cartesian axes, Ry/au):

     atom    1 type  1   force =     0.00000000    0.00000000    0.00000000

     Total force =     0.000000     Total SCF correction =     0.000000


     Computing stress (Cartesian axis) and pressure


     negative rho (up, down):  3.140E-04 0.000E+00
          total   stress  (Ry/bohr**3)                   (kbar)     P=      -11.04
  -0.00007506  -0.00000000  -0.00000000          -11.04       -0.00       -0.00
  -0.00000000  -0.00007506   0.00000000           -0.00      -11.04        0.00
  -0.00000000  -0.00000000  -0.00007506           -0.00       -0.00      -11.04


     Writing all to output data dir ./platinum.save/ :
     XML data file, charge density, pseudopotentials, collected wavefunctions

     init_run     :      0.23s CPU      0.27s WALL (       1 calls)
     electrons    :      1.95s CPU      2.22s WALL (       1 calls)
     forces       :      0.03s CPU      0.04s WALL (       1 calls)
     stress       :      0.16s CPU      0.16s WALL (       1 calls)

     Called by init_run:
     wfcinit      :      0.06s CPU      0.07s WALL (       1 calls)
     potinit      :      0.01s CPU      0.01s WALL (       1 calls)
     hinit0       :      0.15s CPU      0.17s WALL (       1 calls)

     Called by electrons:
     c_bands      :      1.56s CPU      1.79s WALL (       9 calls)
     sum_band     :      0.30s CPU      0.33s WALL (       9 calls)
     v_of_rho     :      0.00s CPU      0.00s WALL (       9 calls)
     newd         :      0.10s CPU      0.10s WALL (       9 calls)
     mix_rho      :      0.00s CPU      0.00s WALL (       9 calls)

     Called by c_bands:
     init_us_2    :      0.02s CPU      0.03s WALL (     735 calls)
     cegterg      :      1.46s CPU      1.69s WALL (     315 calls)

     Called by *egterg:
     cdiaghg      :      0.09s CPU      0.11s WALL (    1526 calls)
     h_psi        :      0.85s CPU      0.99s WALL (    1596 calls)
     s_psi        :      0.14s CPU      0.16s WALL (    1596 calls)
     g_psi        :      0.01s CPU      0.02s WALL (    1246 calls)

     Called by h_psi:
     h_psi:calbec :      0.11s CPU      0.12s WALL (    1596 calls)
     vloc_psi     :      0.59s CPU      0.69s WALL (    1596 calls)
     add_vuspsi   :      0.13s CPU      0.16s WALL (    1596 calls)

     General routines
     calbec       :      0.14s CPU      0.17s WALL (    2086 calls)
     fft          :      0.01s CPU      0.03s WALL (      99 calls)
     ffts         :      0.00s CPU      0.00s WALL (      36 calls)
     fftw         :      0.44s CPU      0.52s WALL (   53560 calls)

     Parallel routines

     PWSCF        :      2.46s CPU      2.78s WALL


   This run was terminated on:  22: 1:19   4Nov2024            

=------------------------------------------------------------------------------=
   JOB DONE.
=------------------------------------------------------------------------------=
