
     Program PWSCF v.7.3.1 starts on  4Nov2024 at 22: 0:41 

     This program is part of the open-source Quantum ESPRESSO suite
     for quantum simulation of materials; please cite
         "P. Giannozzi et al., J. Phys.:Condens. Matter 21 395502 (2009);
         "P. Giannozzi et al., J. Phys.:Condens. Matter 29 465901 (2017);
         "P. Giannozzi et al., J. Chem. Phys. 152 154105 (2020);
          URL http://www.quantum-espresso.org", 
     in publications or presentations arising from this work. More details at
     http://www.quantum-espresso.org/quote

     Parallel version (MPI), running on     1 processors

     MPI processes distributed on     1 nodes
     11871 MiB available memory on the printing compute node when the environment starts

     Waiting for input...
     Reading input from standard input

     Current dimensions of program PWSCF are:
     Max number of different atomic species (ntypx) = 10
     Max number of k-points (npk) =  40000
     Max angular momentum in pseudopotentials (lmaxx) =  4

     Subspace diagonalization in iterative solution of the eigenvalue problem:
     a serial algorithm will be used


     G-vector sticks info
     --------------------
     sticks:   dense  smooth     PW     G-vecs:    dense   smooth      PW
     Sum         151     151     55                 1211     1211     283

     Using Slab Decomposition



     bravais-lattice index     =            2
     lattice parameter (alat)  =       7.3000  a.u.
     unit-cell volume          =      97.2542 (a.u.)^3
     number of atoms/cell      =            1
     number of atomic types    =            1
     number of electrons       =        10.00
     number of Kohn-Sham states=           10
     kinetic-energy cutoff     =      20.0000  Ry
     charge density cutoff     =      80.0000  Ry
     scf convergence threshold =      1.0E-08
     mixing beta               =       0.7000
     number of iterations used =            8  plain     mixing
     Exchange-correlation=  SLA  PZ   NOGX NOGC
                           (   1   1   0   0   0   0   0)
     Non magnetic calculation with spin-orbit


     celldm(1)=   7.300000  celldm(2)=   0.000000  celldm(3)=   0.000000
     celldm(4)=   0.000000  celldm(5)=   0.000000  celldm(6)=   0.000000

     crystal axes: (cart. coord. in units of alat)
               a(1) = (  -0.500000   0.000000   0.500000 )  
               a(2) = (   0.000000   0.500000   0.500000 )  
               a(3) = (  -0.500000   0.500000   0.000000 )  

     reciprocal axes: (cart. coord. in units 2 pi/alat)
               b(1) = ( -1.000000 -1.000000  1.000000 )  
               b(2) = (  1.000000  1.000000  1.000000 )  
               b(3) = ( -1.000000  1.000000 -1.000000 )  


     PseudoPot. # 1 for Pt read from file:
     /home/dashlander/Desktop/Sem7/CPD/Assignment_3/pseudo/Pt.rel-pz-n-rrkjus.UPF
     MD5 check sum: 4baafe8ec1942611396c7a5466f52249
     Pseudo is Ultrasoft + core correction, Zval = 10.0
     Generated by new atomic code, or converted to UPF format
     Using radial grid of 1277 points,  6 beta functions with: 
                l(1) =   2
                l(2) =   2
                l(3) =   2
                l(4) =   2
                l(5) =   1
                l(6) =   1
     Q(r) pseudized with 0 coefficients 


     atomic species   valence    mass     pseudopotential
     Pt               10.00   195.08400     Pt( 1.00)

     48 Sym. Ops., with inversion, found



   Cartesian axes

     site n.     atom                  positions (alat units)
         1        Pt     tau(   1) = (   0.0000000   0.0000000   0.0000000  )

     number of k points=    35
                       cart. coord. in units 2pi/alat
        k(    1) = (   0.0000000   0.0000000   0.0000000), wk =   0.0013717
        k(    2) = (  -0.1111111   0.1111111  -0.1111111), wk =   0.0109739
        k(    3) = (  -0.2222222   0.2222222  -0.2222222), wk =   0.0109739
        k(    4) = (  -0.3333333   0.3333333  -0.3333333), wk =   0.0109739
        k(    5) = (  -0.4444444   0.4444444  -0.4444444), wk =   0.0109739
        k(    6) = (   0.0000000   0.2222222   0.0000000), wk =   0.0082305
        k(    7) = (  -0.1111111   0.3333333  -0.1111111), wk =   0.0329218
        k(    8) = (  -0.2222222   0.4444444  -0.2222222), wk =   0.0329218
        k(    9) = (  -0.3333333   0.5555556  -0.3333333), wk =   0.0329218
        k(   10) = (   0.5555556  -0.3333333   0.5555556), wk =   0.0329218
        k(   11) = (   0.4444444  -0.2222222   0.4444444), wk =   0.0329218
        k(   12) = (   0.3333333  -0.1111111   0.3333333), wk =   0.0329218
        k(   13) = (   0.2222222  -0.0000000   0.2222222), wk =   0.0164609
        k(   14) = (   0.0000000   0.4444444   0.0000000), wk =   0.0082305
        k(   15) = (  -0.1111111   0.5555556  -0.1111111), wk =   0.0329218
        k(   16) = (  -0.2222222   0.6666667  -0.2222222), wk =   0.0329218
        k(   17) = (   0.6666667  -0.2222222   0.6666667), wk =   0.0329218
        k(   18) = (   0.5555556  -0.1111111   0.5555556), wk =   0.0329218
        k(   19) = (   0.4444444   0.0000000   0.4444444), wk =   0.0164609
        k(   20) = (   0.0000000   0.6666667   0.0000000), wk =   0.0082305
        k(   21) = (  -0.1111111   0.7777778  -0.1111111), wk =   0.0329218
        k(   22) = (   0.7777778  -0.1111111   0.7777778), wk =   0.0329218
        k(   23) = (   0.6666667  -0.0000000   0.6666667), wk =   0.0164609
        k(   24) = (   0.0000000   0.8888889   0.0000000), wk =   0.0082305
        k(   25) = (   0.8888889   0.0000000   0.8888889), wk =   0.0164609
        k(   26) = (  -0.2222222   0.4444444   0.0000000), wk =   0.0329218
        k(   27) = (  -0.3333333   0.5555556  -0.1111111), wk =   0.0658436
        k(   28) = (   0.5555556  -0.3333333   0.7777778), wk =   0.0658436
        k(   29) = (  -0.2222222   0.6666667   0.0000000), wk =   0.0329218
        k(   30) = (   0.6666667  -0.2222222   0.8888889), wk =   0.0658436
        k(   31) = (   0.5555556  -0.1111111   0.7777778), wk =   0.0658436
        k(   32) = (   0.4444444   0.0000000   0.6666667), wk =   0.0329218
        k(   33) = (   0.7777778  -0.1111111   1.0000000), wk =   0.0329218
        k(   34) = (   0.6666667  -0.0000000   0.8888889), wk =   0.0329218
        k(   35) = (   0.5555556  -0.1111111   1.0000000), wk =   0.0329218

     Dense  grid:     1211 G-vectors     FFT dimensions: (  15,  15,  15)

     Estimated max dynamical RAM per process >      11.72 MB

     Check: negative core charge=   -0.000035

     Initial potential from superposition of free atoms

     starting charge       9.9999, renormalised to      10.0000

     negative rho (up, down):  9.638E-05 0.000E+00
     Starting wfcs are   12 randomized atomic wfcs

     total cpu time spent up to now is        0.4 secs

     Self-consistent Calculation

     iteration #  1     ecut=    20.00 Ry     beta= 0.70
     Davidson diagonalization with overlap
     ethr =  1.00E-02,  avg # of iterations =  2.2

     Threshold (ethr) on eigenvalues was too large:
     Diagonalizing with lowered threshold

     Davidson diagonalization with overlap
     ethr =  1.51E-05,  avg # of iterations =  7.9

     negative rho (up, down):  1.887E-04 0.000E+00

     total cpu time spent up to now is        0.9 secs

     total energy              =     -69.45108537 Ry
     estimated scf accuracy    <       0.00443764 Ry

     iteration #  2     ecut=    20.00 Ry     beta= 0.70
     Davidson diagonalization with overlap
     ethr =  4.44E-05,  avg # of iterations =  2.1

     negative rho (up, down):  2.142E-04 0.000E+00

     total cpu time spent up to now is        1.1 secs

     total energy              =     -69.45225860 Ry
     estimated scf accuracy    <       0.00047405 Ry

     iteration #  3     ecut=    20.00 Ry     beta= 0.70
     Davidson diagonalization with overlap
     ethr =  4.74E-06,  avg # of iterations =  2.0

     negative rho (up, down):  2.329E-04 0.000E+00

     total cpu time spent up to now is        1.3 secs

     total energy              =     -69.45233250 Ry
     estimated scf accuracy    <       0.00001467 Ry

     iteration #  4     ecut=    20.00 Ry     beta= 0.70
     Davidson diagonalization with overlap
     c_bands:  2 eigenvalues not converged
     ethr =  1.47E-07,  avg # of iterations =  6.7

     negative rho (up, down):  2.330E-04 0.000E+00

     total cpu time spent up to now is        1.6 secs

     total energy              =     -69.45234949 Ry
     estimated scf accuracy    <       0.00000261 Ry

     iteration #  5     ecut=    20.00 Ry     beta= 0.70
     Davidson diagonalization with overlap
     ethr =  2.61E-08,  avg # of iterations =  2.9

     negative rho (up, down):  2.336E-04 0.000E+00

     total cpu time spent up to now is        1.8 secs

     total energy              =     -69.45234976 Ry
     estimated scf accuracy    <       0.00000026 Ry

     iteration #  6     ecut=    20.00 Ry     beta= 0.70
     Davidson diagonalization with overlap
     ethr =  2.56E-09,  avg # of iterations =  5.4

     negative rho (up, down):  2.337E-04 0.000E+00

     total cpu time spent up to now is        2.0 secs

     total energy              =     -69.45234997 Ry
     estimated scf accuracy    <       0.00000004 Ry

     iteration #  7     ecut=    20.00 Ry     beta= 0.70
     Davidson diagonalization with overlap
     ethr =  4.37E-10,  avg # of iterations =  3.6

     negative rho (up, down):  2.337E-04 0.000E+00

     total cpu time spent up to now is        2.3 secs

     total energy              =     -69.45234997 Ry
     estimated scf accuracy    <       0.00000006 Ry

     iteration #  8     ecut=    20.00 Ry     beta= 0.70
     Davidson diagonalization with overlap
     ethr =  4.37E-10,  avg # of iterations =  2.1

     negative rho (up, down):  2.337E-04 0.000E+00

     total cpu time spent up to now is        2.5 secs

     End of self-consistent calculation

          k = 0.0000 0.0000 0.0000 (   137 PWs)   bands (ev):

     7.9988   7.9988  14.3500  14.3500  14.3500  14.3500  15.3338  15.3338
    17.2766  17.2766

          k =-0.1111 0.1111-0.1111 (   153 PWs)   bands (ev):

     8.5005   8.5005  14.2873  14.2873  14.4681  14.4681  15.4537  15.4537
    17.0975  17.0975

          k =-0.2222 0.2222-0.2222 (   150 PWs)   bands (ev):

     9.7758   9.7758  14.1723  14.1723  14.5643  14.5643  15.7511  15.7511
    17.0109  17.0109

          k =-0.3333 0.3333-0.3333 (   144 PWs)   bands (ev):

    10.8116  10.8116  14.3828  14.3828  15.1079  15.1079  15.5024  15.5024
    17.8242  17.8242

          k =-0.4444 0.4444-0.4444 (   147 PWs)   bands (ev):

    10.9836  10.9836  14.1782  14.1782  15.1880  15.1880  17.3743  17.3743
    18.5894  18.5894

          k = 0.0000 0.2222 0.0000 (   153 PWs)   bands (ev):

     8.6714   8.6714  14.1068  14.1068  14.6391  14.6391  15.5426  15.5426
    16.8506  16.8506

          k =-0.1111 0.3333-0.1111 (   152 PWs)   bands (ev):

     9.7238   9.7238  13.7964  13.7964  14.7935  14.7935  15.9219  15.9219
    16.6727  16.6727

          k =-0.2222 0.4444-0.2222 (   149 PWs)   bands (ev):

    10.9863  10.9863  13.9930  13.9930  14.5321  14.5321  15.7683  15.7683
    17.6647  17.6647

          k =-0.3333 0.5556-0.3333 (   148 PWs)   bands (ev):

    11.3666  11.3666  14.1579  14.1579  15.2007  15.2007  15.7342  15.7342
    18.8667  18.8667

          k = 0.5556-0.3333 0.5556 (   147 PWs)   bands (ev):

    11.3862  11.3862  14.0758  14.0758  15.2060  15.2060  16.4503  16.4503
    18.7958  18.7958

          k = 0.4444-0.2222 0.4444 (   146 PWs)   bands (ev):

    11.3669  11.3669  14.2579  14.2579  15.1191  15.1191  15.4748  15.4748
    17.8597  17.8597

          k = 0.3333-0.1111 0.3333 (   148 PWs)   bands (ev):

    10.6501  10.6501  13.9200  13.9200  14.6406  14.6406  15.8500  15.8500
    16.7870  16.7870

          k = 0.2222-0.0000 0.2222 (   149 PWs)   bands (ev):

     9.2901   9.2901  14.0384  14.0384  14.6587  14.6587  15.7305  15.7305
    16.7163  16.7163

          k = 0.0000 0.4444 0.0000 (   149 PWs)   bands (ev):

    10.3909  10.3909  13.2552  13.2552  15.0966  15.0966  16.5003  16.5003
    16.5211  16.5211

          k =-0.1111 0.5556-0.1111 (   141 PWs)   bands (ev):

    11.4088  11.4088  12.9346  12.9346  14.8912  14.8912  16.6813  16.6813
    17.6878  17.6878

          k =-0.2222 0.6667-0.2222 (   145 PWs)   bands (ev):

    11.9556  11.9556  13.3227  13.3227  14.6538  14.6538  16.4369  16.4369
    19.0014  19.0014

          k = 0.6667-0.2222 0.6667 (   148 PWs)   bands (ev):

    12.1655  12.1655  13.5847  13.5847  14.9820  14.9820  16.1780  16.1780
    18.8735  18.8735

          k = 0.5556-0.1111 0.5556 (   148 PWs)   bands (ev):

    12.4292  12.4292  13.7854  13.7854  14.5939  14.5939  15.9927  15.9927
    17.8953  17.8953

          k = 0.4444 0.0000 0.4444 (   144 PWs)   bands (ev):

    12.0289  12.0289  13.6495  13.6495  14.3668  14.3668  16.0420  16.0420
    16.8593  16.8593

          k = 0.0000 0.6667 0.0000 (   141 PWs)   bands (ev):

    11.4885  11.4885  12.3298  12.3298  16.1979  16.1979  17.7786  17.7786
    17.8551  17.8551

          k =-0.1111 0.7778-0.1111 (   143 PWs)   bands (ev):

    11.6353  11.6353  12.2095  12.2095  16.4019  16.4019  17.8729  17.8729
    19.0854  19.0854

          k = 0.7778-0.1111 0.7778 (   140 PWs)   bands (ev):

    11.9516  11.9516  12.7179  12.7179  15.7586  15.7586  17.4380  17.4380
    19.0989  19.0989

          k = 0.6667-0.0000 0.6667 (   142 PWs)   bands (ev):

    12.4859  12.4859  13.4497  13.4497  14.7794  14.7794  16.8104  16.8104
    18.3710  18.3710

          k = 0.0000 0.8889 0.0000 (   150 PWs)   bands (ev):

    11.2367  11.2367  11.7767  11.7767  18.6035  18.6035  18.7274  18.7274
    19.6710  19.6710

          k = 0.8889 0.0000 0.8889 (   148 PWs)   bands (ev):

    11.4039  11.4039  11.9336  11.9336  17.6182  17.6182  18.4545  18.4545
    19.5187  19.5187

          k =-0.2222 0.4444 0.0000 (   150 PWs)   bands (ev):

    10.8833  10.8833  13.4251  13.4251  14.6881  14.6881  16.3904  16.3904
    16.6457  16.6457

          k =-0.3333 0.5556-0.1111 (   146 PWs)   bands (ev):

    11.9492  11.9492  13.6934  13.6934  14.2049  14.2049  16.1934  16.1934
    17.7089  17.7089

          k = 0.5556-0.3333 0.7778 (   148 PWs)   bands (ev):

    12.0794  12.0794  13.7300  13.7300  14.9325  14.9325  15.9804  15.9804
    18.6609  18.6609

          k =-0.2222 0.6667 0.0000 (   146 PWs)   bands (ev):

    12.0255  12.0255  12.6701  12.6701  14.8825  14.8825  17.5875  17.5875
    17.8826  17.8826

          k = 0.6667-0.2222 0.8889 (   146 PWs)   bands (ev):

    12.3675  12.3675  13.0332  13.0332  14.6577  14.6577  17.1642  17.1642
    18.8264  18.8264

          k = 0.5556-0.1111 0.7778 (   147 PWs)   bands (ev):

    12.7601  12.7601  13.3004  13.3004  14.4663  14.4663  16.6989  16.6989
    18.7231  18.7231

          k = 0.4444 0.0000 0.6667 (   145 PWs)   bands (ev):

    13.1122  13.1122  13.4493  13.4493  13.6942  13.6942  16.7110  16.7110
    17.9399  17.9399

          k = 0.7778-0.1111 1.0000 (   145 PWs)   bands (ev):

    11.7332  11.7332  12.2013  12.2013  16.4019  16.4019  18.1739  18.1739
    19.3199  19.3199

          k = 0.6667-0.0000 0.8889 (   147 PWs)   bands (ev):

    12.1763  12.1763  12.7937  12.7937  15.4110  15.4110  17.3927  17.3927
    19.2842  19.2842

          k = 0.5556-0.1111 1.0000 (   149 PWs)   bands (ev):

    12.6726  12.6726  13.4298  13.4298  14.1893  14.1893  16.9680  16.9680
    19.2533  19.2533

     highest occupied level (ev):    19.6710

!    total energy              =     -69.45234998 Ry
     estimated scf accuracy    <          1.8E-12 Ry

     The total energy is the sum of the following terms:
     one-electron contribution =      18.44490925 Ry
     hartree contribution      =       3.52017476 Ry
     xc contribution           =     -28.61110419 Ry
     ewald contribution        =     -62.80632981 Ry

     convergence has been achieved in   8 iterations

     negative rho (up, down):  2.337E-04 0.000E+00

     Forces acting on atoms (cartesian axes, Ry/au):

     atom    1 type  1   force =     0.00000000    0.00000000    0.00000000

     Total force =     0.000000     Total SCF correction =     0.000000


     Computing stress (Cartesian axis) and pressure


     negative rho (up, down):  2.337E-04 0.000E+00
          total   stress  (Ry/bohr**3)                   (kbar)     P=      227.21
   0.00154457   0.00000000   0.00000000          227.21        0.00        0.00
   0.00000000   0.00154457  -0.00000000            0.00      227.21       -0.00
   0.00000000  -0.00000000   0.00154457            0.00       -0.00      227.21


     Writing all to output data dir ./platinum.save/ :
     XML data file, charge density, pseudopotentials, collected wavefunctions

     init_run     :      0.22s CPU      0.27s WALL (       1 calls)
     electrons    :      1.78s CPU      2.09s WALL (       1 calls)
     forces       :      0.04s CPU      0.04s WALL (       1 calls)
     stress       :      0.15s CPU      0.15s WALL (       1 calls)

     Called by init_run:
     wfcinit      :      0.05s CPU      0.07s WALL (       1 calls)
     potinit      :      0.01s CPU      0.01s WALL (       1 calls)
     hinit0       :      0.15s CPU      0.17s WALL (       1 calls)

     Called by electrons:
     c_bands      :      1.39s CPU      1.67s WALL (       9 calls)
     sum_band     :      0.29s CPU      0.33s WALL (       9 calls)
     v_of_rho     :      0.00s CPU      0.00s WALL (       9 calls)
     newd         :      0.10s CPU      0.10s WALL (       9 calls)
     mix_rho      :      0.00s CPU      0.00s WALL (       9 calls)

     Called by c_bands:
     init_us_2    :      0.02s CPU      0.02s WALL (     735 calls)
     cegterg      :      1.31s CPU      1.58s WALL (     315 calls)

     Called by *egterg:
     cdiaghg      :      0.08s CPU      0.10s WALL (    1503 calls)
     h_psi        :      0.79s CPU      0.96s WALL (    1573 calls)
     s_psi        :      0.12s CPU      0.14s WALL (    1573 calls)
     g_psi        :      0.01s CPU      0.01s WALL (    1223 calls)

     Called by h_psi:
     h_psi:calbec :      0.09s CPU      0.11s WALL (    1573 calls)
     vloc_psi     :      0.56s CPU      0.68s WALL (    1573 calls)
     add_vuspsi   :      0.12s CPU      0.14s WALL (    1573 calls)

     General routines
     calbec       :      0.13s CPU      0.15s WALL (    2063 calls)
     fft          :      0.01s CPU      0.03s WALL (      99 calls)
     ffts         :      0.00s CPU      0.00s WALL (      36 calls)
     fftw         :      0.42s CPU      0.51s WALL (   52464 calls)

     Parallel routines

     PWSCF        :      2.28s CPU      2.65s WALL


   This run was terminated on:  22: 0:43   4Nov2024            

=------------------------------------------------------------------------------=
   JOB DONE.
=------------------------------------------------------------------------------=
