
     Program PWSCF v.7.3.1 starts on  4Nov2024 at 22: 2:28 

     This program is part of the open-source Quantum ESPRESSO suite
     for quantum simulation of materials; please cite
         "P. Giannozzi et al., J. Phys.:Condens. Matter 21 395502 (2009);
         "P. Giannozzi et al., J. Phys.:Condens. Matter 29 465901 (2017);
         "P. Giannozzi et al., J. Chem. Phys. 152 154105 (2020);
          URL http://www.quantum-espresso.org", 
     in publications or presentations arising from this work. More details at
     http://www.quantum-espresso.org/quote

     Parallel version (MPI), running on     1 processors

     MPI processes distributed on     1 nodes
     11814 MiB available memory on the printing compute node when the environment starts

     Waiting for input...
     Reading input from standard input

     Current dimensions of program PWSCF are:
     Max number of different atomic species (ntypx) = 10
     Max number of k-points (npk) =  40000
     Max angular momentum in pseudopotentials (lmaxx) =  4

     Subspace diagonalization in iterative solution of the eigenvalue problem:
     a serial algorithm will be used


     G-vector sticks info
     --------------------
     sticks:   dense  smooth     PW     G-vecs:    dense   smooth      PW
     Sum         163     163     61                 1411     1411     331

     Using Slab Decomposition



     bravais-lattice index     =            2
     lattice parameter (alat)  =       7.7800  a.u.
     unit-cell volume          =     117.7277 (a.u.)^3
     number of atoms/cell      =            1
     number of atomic types    =            1
     number of electrons       =        10.00
     number of Kohn-Sham states=           10
     kinetic-energy cutoff     =      20.0000  Ry
     charge density cutoff     =      80.0000  Ry
     scf convergence threshold =      1.0E-08
     mixing beta               =       0.7000
     number of iterations used =            8  plain     mixing
     Exchange-correlation=  SLA  PZ   NOGX NOGC
                           (   1   1   0   0   0   0   0)
     Non magnetic calculation with spin-orbit


     celldm(1)=   7.780000  celldm(2)=   0.000000  celldm(3)=   0.000000
     celldm(4)=   0.000000  celldm(5)=   0.000000  celldm(6)=   0.000000

     crystal axes: (cart. coord. in units of alat)
               a(1) = (  -0.500000   0.000000   0.500000 )  
               a(2) = (   0.000000   0.500000   0.500000 )  
               a(3) = (  -0.500000   0.500000   0.000000 )  

     reciprocal axes: (cart. coord. in units 2 pi/alat)
               b(1) = ( -1.000000 -1.000000  1.000000 )  
               b(2) = (  1.000000  1.000000  1.000000 )  
               b(3) = ( -1.000000  1.000000 -1.000000 )  


     PseudoPot. # 1 for Pt read from file:
     /home/dashlander/Desktop/Sem7/CPD/Assignment_3/pseudo/Pt.rel-pz-n-rrkjus.UPF
     MD5 check sum: 4baafe8ec1942611396c7a5466f52249
     Pseudo is Ultrasoft + core correction, Zval = 10.0
     Generated by new atomic code, or converted to UPF format
     Using radial grid of 1277 points,  6 beta functions with: 
                l(1) =   2
                l(2) =   2
                l(3) =   2
                l(4) =   2
                l(5) =   1
                l(6) =   1
     Q(r) pseudized with 0 coefficients 


     atomic species   valence    mass     pseudopotential
     Pt               10.00   195.08400     Pt( 1.00)

     48 Sym. Ops., with inversion, found



   Cartesian axes

     site n.     atom                  positions (alat units)
         1        Pt     tau(   1) = (   0.0000000   0.0000000   0.0000000  )

     number of k points=    35
                       cart. coord. in units 2pi/alat
        k(    1) = (   0.0000000   0.0000000   0.0000000), wk =   0.0013717
        k(    2) = (  -0.1111111   0.1111111  -0.1111111), wk =   0.0109739
        k(    3) = (  -0.2222222   0.2222222  -0.2222222), wk =   0.0109739
        k(    4) = (  -0.3333333   0.3333333  -0.3333333), wk =   0.0109739
        k(    5) = (  -0.4444444   0.4444444  -0.4444444), wk =   0.0109739
        k(    6) = (   0.0000000   0.2222222   0.0000000), wk =   0.0082305
        k(    7) = (  -0.1111111   0.3333333  -0.1111111), wk =   0.0329218
        k(    8) = (  -0.2222222   0.4444444  -0.2222222), wk =   0.0329218
        k(    9) = (  -0.3333333   0.5555556  -0.3333333), wk =   0.0329218
        k(   10) = (   0.5555556  -0.3333333   0.5555556), wk =   0.0329218
        k(   11) = (   0.4444444  -0.2222222   0.4444444), wk =   0.0329218
        k(   12) = (   0.3333333  -0.1111111   0.3333333), wk =   0.0329218
        k(   13) = (   0.2222222  -0.0000000   0.2222222), wk =   0.0164609
        k(   14) = (   0.0000000   0.4444444   0.0000000), wk =   0.0082305
        k(   15) = (  -0.1111111   0.5555556  -0.1111111), wk =   0.0329218
        k(   16) = (  -0.2222222   0.6666667  -0.2222222), wk =   0.0329218
        k(   17) = (   0.6666667  -0.2222222   0.6666667), wk =   0.0329218
        k(   18) = (   0.5555556  -0.1111111   0.5555556), wk =   0.0329218
        k(   19) = (   0.4444444   0.0000000   0.4444444), wk =   0.0164609
        k(   20) = (   0.0000000   0.6666667   0.0000000), wk =   0.0082305
        k(   21) = (  -0.1111111   0.7777778  -0.1111111), wk =   0.0329218
        k(   22) = (   0.7777778  -0.1111111   0.7777778), wk =   0.0329218
        k(   23) = (   0.6666667  -0.0000000   0.6666667), wk =   0.0164609
        k(   24) = (   0.0000000   0.8888889   0.0000000), wk =   0.0082305
        k(   25) = (   0.8888889   0.0000000   0.8888889), wk =   0.0164609
        k(   26) = (  -0.2222222   0.4444444   0.0000000), wk =   0.0329218
        k(   27) = (  -0.3333333   0.5555556  -0.1111111), wk =   0.0658436
        k(   28) = (   0.5555556  -0.3333333   0.7777778), wk =   0.0658436
        k(   29) = (  -0.2222222   0.6666667   0.0000000), wk =   0.0329218
        k(   30) = (   0.6666667  -0.2222222   0.8888889), wk =   0.0658436
        k(   31) = (   0.5555556  -0.1111111   0.7777778), wk =   0.0658436
        k(   32) = (   0.4444444   0.0000000   0.6666667), wk =   0.0329218
        k(   33) = (   0.7777778  -0.1111111   1.0000000), wk =   0.0329218
        k(   34) = (   0.6666667  -0.0000000   0.8888889), wk =   0.0329218
        k(   35) = (   0.5555556  -0.1111111   1.0000000), wk =   0.0329218

     Dense  grid:     1411 G-vectors     FFT dimensions: (  15,  15,  15)

     Estimated max dynamical RAM per process >      13.51 MB

     Check: negative core charge=   -0.000062

     Initial potential from superposition of free atoms

     starting charge       9.9999, renormalised to      10.0000

     negative rho (up, down):  2.216E-04 0.000E+00
     Starting wfcs are   12 randomized atomic wfcs

     total cpu time spent up to now is        0.4 secs

     Self-consistent Calculation

     iteration #  1     ecut=    20.00 Ry     beta= 0.70
     Davidson diagonalization with overlap
     ethr =  1.00E-02,  avg # of iterations =  2.0

     Threshold (ethr) on eigenvalues was too large:
     Diagonalizing with lowered threshold

     Davidson diagonalization with overlap
     ethr =  4.30E-05,  avg # of iterations =  6.7

     negative rho (up, down):  3.011E-04 0.000E+00

     total cpu time spent up to now is        0.9 secs

     total energy              =     -69.44524153 Ry
     estimated scf accuracy    <       0.00214477 Ry

     iteration #  2     ecut=    20.00 Ry     beta= 0.70
     Davidson diagonalization with overlap
     ethr =  2.14E-05,  avg # of iterations =  2.1

     negative rho (up, down):  3.235E-04 0.000E+00

     total cpu time spent up to now is        1.1 secs

     total energy              =     -69.44572088 Ry
     estimated scf accuracy    <       0.00025123 Ry

     iteration #  3     ecut=    20.00 Ry     beta= 0.70
     Davidson diagonalization with overlap
     ethr =  2.51E-06,  avg # of iterations =  2.8

     negative rho (up, down):  3.393E-04 0.000E+00

     total cpu time spent up to now is        1.4 secs

     total energy              =     -69.44577850 Ry
     estimated scf accuracy    <       0.00000922 Ry

     iteration #  4     ecut=    20.00 Ry     beta= 0.70
     Davidson diagonalization with overlap
     ethr =  9.22E-08,  avg # of iterations =  6.1

     negative rho (up, down):  3.393E-04 0.000E+00

     total cpu time spent up to now is        1.7 secs

     total energy              =     -69.44578887 Ry
     estimated scf accuracy    <       0.00000130 Ry

     iteration #  5     ecut=    20.00 Ry     beta= 0.70
     Davidson diagonalization with overlap
     ethr =  1.30E-08,  avg # of iterations =  3.7

     negative rho (up, down):  3.394E-04 0.000E+00

     total cpu time spent up to now is        1.9 secs

     total energy              =     -69.44578941 Ry
     estimated scf accuracy    <       0.00000001 Ry

     iteration #  6     ecut=    20.00 Ry     beta= 0.70
     Davidson diagonalization with overlap
     ethr =  1.48E-10,  avg # of iterations =  9.3

     negative rho (up, down):  3.394E-04 0.000E+00

     total cpu time spent up to now is        2.3 secs

     total energy              =     -69.44578946 Ry
     estimated scf accuracy    <       0.00000002 Ry

     iteration #  7     ecut=    20.00 Ry     beta= 0.70
     Davidson diagonalization with overlap
     ethr =  1.48E-10,  avg # of iterations =  2.0

     negative rho (up, down):  3.395E-04 0.000E+00

     total cpu time spent up to now is        2.5 secs

     End of self-consistent calculation

          k = 0.0000 0.0000 0.0000 (   169 PWs)   bands (ev):

     5.3832   5.3832  10.7317  10.7317  10.7317  10.7317  11.7555  11.7555
    13.1177  13.1177

          k =-0.1111 0.1111-0.1111 (   172 PWs)   bands (ev):

     5.8058   5.8058  10.7086  10.7086  10.8060  10.8060  11.8410  11.8410
    12.9834  12.9834

          k =-0.2222 0.2222-0.2222 (   171 PWs)   bands (ev):

     6.9084   6.9084  10.6722  10.6722  10.8651  10.8651  12.0705  12.0705
    12.8792  12.8792

          k =-0.3333 0.3333-0.3333 (   171 PWs)   bands (ev):

     7.9231   7.9231  10.7477  10.7477  11.4146  11.4146  11.8934  11.8934
    13.4558  13.4558

          k =-0.4444 0.4444-0.4444 (   174 PWs)   bands (ev):

     8.1716   8.1716  10.6104  10.6104  11.6376  11.6376  13.4076  13.4076
    14.0330  14.0330

          k = 0.0000 0.2222 0.0000 (   173 PWs)   bands (ev):

     5.9485   5.9485  10.5862  10.5862  10.9282  10.9282  11.8920  11.8920
    12.8470  12.8470

          k =-0.1111 0.3333-0.1111 (   173 PWs)   bands (ev):

     6.8477   6.8477  10.3961  10.3961  11.0384  11.0384  12.1718  12.1718
    12.6974  12.6974

          k =-0.2222 0.4444-0.2222 (   175 PWs)   bands (ev):

     8.0105   8.0105  10.5387  10.5387  10.9108  10.9108  12.0718  12.0718
    13.3538  13.3538

          k =-0.3333 0.5556-0.3333 (   172 PWs)   bands (ev):

     8.4626   8.4626  10.6226  10.6226  11.5697  11.5697  12.0510  12.0510
    14.2074  14.2074

          k = 0.5556-0.3333 0.5556 (   174 PWs)   bands (ev):

     8.5037   8.5037  10.5651  10.5651  11.6246  11.6246  12.6082  12.6082
    14.1752  14.1752

          k = 0.4444-0.2222 0.4444 (   175 PWs)   bands (ev):

     8.4238   8.4238  10.6749  10.6749  11.4757  11.4757  11.8582  11.8582
    13.5219  13.5219

          k = 0.3333-0.1111 0.3333 (   176 PWs)   bands (ev):

     7.6711   7.6711  10.4911  10.4911  10.9525  10.9525  12.1375  12.1375
    12.7603  12.7603

          k = 0.2222-0.0000 0.2222 (   174 PWs)   bands (ev):

     6.4730   6.4730  10.5588  10.5588  10.9376  10.9376  12.0365  12.0365
    12.7268  12.7268

          k = 0.0000 0.4444 0.0000 (   169 PWs)   bands (ev):

     7.4363   7.4363  10.0194  10.0194  11.2615  11.2615  12.5384  12.5384
    12.6385  12.6385

          k =-0.1111 0.5556-0.1111 (   176 PWs)   bands (ev):

     8.3846   8.3846   9.7898   9.7898  11.1882  11.1882  12.6910  12.6910
    13.3677  13.3677

          k =-0.2222 0.6667-0.2222 (   184 PWs)   bands (ev):

     8.9647   8.9647  10.0861  10.0861  11.0611  11.0611  12.5166  12.5166
    14.2950  14.2950

          k = 0.6667-0.2222 0.6667 (   178 PWs)   bands (ev):

     9.1482   9.1482  10.2837  10.2837  11.3689  11.3689  12.3450  12.3450
    14.2317  14.2317

          k = 0.5556-0.1111 0.5556 (   177 PWs)   bands (ev):

     9.3106   9.3106  10.3955  10.3955  11.1208  11.1208  12.1678  12.1678
    13.5626  13.5626

          k = 0.4444 0.0000 0.4444 (   174 PWs)   bands (ev):

     8.8653   8.8653  10.2996  10.2996  10.8518  10.8518  12.2046  12.2046
    12.8471  12.8471

          k = 0.0000 0.6667 0.0000 (   174 PWs)   bands (ev):

     8.5840   8.5840   9.3480   9.3480  12.1828  12.1828  13.4435  13.4435
    13.4951  13.4951

          k =-0.1111 0.7778-0.1111 (   179 PWs)   bands (ev):

     8.7860   8.7860   9.2553   9.2553  12.4132  12.4132  13.5113  13.5113
    14.3932  14.3932

          k = 0.7778-0.1111 0.7778 (   180 PWs)   bands (ev):

     9.0557   9.0557   9.6372   9.6372  11.9639  11.9639  13.1987  13.1987
    14.4183  14.4183

          k = 0.6667-0.0000 0.6667 (   186 PWs)   bands (ev):

     9.4409   9.4409  10.1666  10.1666  11.2616  11.2616  12.7334  12.7334
    13.9130  13.9130

          k = 0.0000 0.8889 0.0000 (   190 PWs)   bands (ev):

     8.5092   8.5092   8.9334   8.9334  13.9479  13.9479  14.0509  14.0509
    15.0645  15.0645

          k = 0.8889 0.0000 0.8889 (   182 PWs)   bands (ev):

     8.6505   8.6505   9.0476   9.0476  13.3555  13.3555  13.8756  13.8756
    14.7859  14.7859

          k =-0.2222 0.4444 0.0000 (   175 PWs)   bands (ev):

     7.8576   7.8576  10.1435  10.1435  11.0140  11.0140  12.5075  12.5075
    12.6485  12.6485

          k =-0.3333 0.5556-0.1111 (   181 PWs)   bands (ev):

     8.8633   8.8633  10.3264  10.3264  10.7449  10.7449  12.3369  12.3369
    13.4173  13.4173

          k = 0.5556-0.3333 0.7778 (   175 PWs)   bands (ev):

     9.0523   9.0523  10.3777  10.3777  11.3307  11.3307  12.2187  12.2187
    14.0829  14.0829

          k =-0.2222 0.6667 0.0000 (   178 PWs)   bands (ev):

     9.0085   9.0085   9.5966   9.5966  11.2347  11.2347  13.3152  13.3152
    13.5439  13.5439

          k = 0.6667-0.2222 0.8889 (   181 PWs)   bands (ev):

     9.3451   9.3451   9.8737   9.8737  11.1081  11.1081  13.0343  13.0343
    14.2074  14.2074

          k = 0.5556-0.1111 0.7778 (   179 PWs)   bands (ev):

     9.6333   9.6333  10.0743  10.0743  10.9973  10.9973  12.7037  12.7037
    14.1369  14.1369

          k = 0.4444 0.0000 0.6667 (   177 PWs)   bands (ev):

     9.8142   9.8142  10.1413  10.1413  10.4744  10.4744  12.6969  12.6969
    13.5905  13.5905

          k = 0.7778-0.1111 1.0000 (   181 PWs)   bands (ev):

     8.8981   8.8981   9.2451   9.2451  12.4438  12.4438  13.7163  13.7163
    14.5962  14.5962

          k = 0.6667-0.0000 0.8889 (   181 PWs)   bands (ev):

     9.2432   9.2432   9.6855   9.6855  11.7075  11.7075  13.1851  13.1851
    14.5447  14.5447

          k = 0.5556-0.1111 1.0000 (   187 PWs)   bands (ev):

     9.6223   9.6223  10.1349  10.1349  10.7977  10.7977  12.9049  12.9049
    14.5062  14.5062

     highest occupied level (ev):    15.0645

!    total energy              =     -69.44578946 Ry
     estimated scf accuracy    <          2.2E-09 Ry

     The total energy is the sum of the following terms:
     one-electron contribution =      13.24200166 Ry
     hartree contribution      =       4.64543267 Ry
     xc contribution           =     -28.40183464 Ry
     ewald contribution        =     -58.93138916 Ry

     convergence has been achieved in   7 iterations

     negative rho (up, down):  3.395E-04 0.000E+00

     Forces acting on atoms (cartesian axes, Ry/au):

     atom    1 type  1   force =     0.00000000    0.00000000    0.00000000

     Total force =     0.000000     Total SCF correction =     0.000000


     Computing stress (Cartesian axis) and pressure


     negative rho (up, down):  3.395E-04 0.000E+00
          total   stress  (Ry/bohr**3)                   (kbar)     P=     -238.15
  -0.00161891  -0.00000000   0.00000000         -238.15       -0.00        0.00
  -0.00000000  -0.00161891  -0.00000000           -0.00     -238.15       -0.00
   0.00000000  -0.00000000  -0.00161891            0.00       -0.00     -238.15


     Writing all to output data dir ./platinum.save/ :
     XML data file, charge density, pseudopotentials, collected wavefunctions

     init_run     :      0.22s CPU      0.27s WALL (       1 calls)
     electrons    :      1.93s CPU      2.16s WALL (       1 calls)
     forces       :      0.04s CPU      0.04s WALL (       1 calls)
     stress       :      0.18s CPU      0.18s WALL (       1 calls)

     Called by init_run:
     wfcinit      :      0.05s CPU      0.08s WALL (       1 calls)
     potinit      :      0.01s CPU      0.01s WALL (       1 calls)
     hinit0       :      0.15s CPU      0.17s WALL (       1 calls)

     Called by electrons:
     c_bands      :      1.54s CPU      1.76s WALL (       8 calls)
     sum_band     :      0.29s CPU      0.31s WALL (       8 calls)
     v_of_rho     :      0.00s CPU      0.00s WALL (       8 calls)
     newd         :      0.10s CPU      0.10s WALL (       8 calls)
     mix_rho      :      0.00s CPU      0.00s WALL (       8 calls)

     Called by c_bands:
     init_us_2    :      0.03s CPU      0.03s WALL (     665 calls)
     cegterg      :      1.45s CPU      1.66s WALL (     280 calls)

     Called by *egterg:
     cdiaghg      :      0.09s CPU      0.11s WALL (    1458 calls)
     h_psi        :      0.81s CPU      0.95s WALL (    1528 calls)
     s_psi        :      0.14s CPU      0.16s WALL (    1528 calls)
     g_psi        :      0.01s CPU      0.02s WALL (    1213 calls)

     Called by h_psi:
     h_psi:calbec :      0.11s CPU      0.13s WALL (    1528 calls)
     vloc_psi     :      0.54s CPU      0.64s WALL (    1528 calls)
     add_vuspsi   :      0.14s CPU      0.16s WALL (    1528 calls)

     General routines
     calbec       :      0.15s CPU      0.17s WALL (    1983 calls)
     fft          :      0.01s CPU      0.03s WALL (      89 calls)
     ffts         :      0.00s CPU      0.00s WALL (      32 calls)
     fftw         :      0.40s CPU      0.48s WALL (   48492 calls)

     Parallel routines

     PWSCF        :      2.47s CPU      2.76s WALL


   This run was terminated on:  22: 2:30   4Nov2024            

=------------------------------------------------------------------------------=
   JOB DONE.
=------------------------------------------------------------------------------=
