
     Program PWSCF v.7.3.1 starts on  4Nov2024 at 22: 0: 7 

     This program is part of the open-source Quantum ESPRESSO suite
     for quantum simulation of materials; please cite
         "P. Giannozzi et al., J. Phys.:Condens. Matter 21 395502 (2009);
         "P. Giannozzi et al., J. Phys.:Condens. Matter 29 465901 (2017);
         "P. Giannozzi et al., J. Chem. Phys. 152 154105 (2020);
          URL http://www.quantum-espresso.org", 
     in publications or presentations arising from this work. More details at
     http://www.quantum-espresso.org/quote

     Parallel version (MPI), running on     1 processors

     MPI processes distributed on     1 nodes
     11866 MiB available memory on the printing compute node when the environment starts

     Waiting for input...
     Reading input from standard input

     Current dimensions of program PWSCF are:
     Max number of different atomic species (ntypx) = 10
     Max number of k-points (npk) =  40000
     Max angular momentum in pseudopotentials (lmaxx) =  4

     Subspace diagonalization in iterative solution of the eigenvalue problem:
     a serial algorithm will be used


     G-vector sticks info
     --------------------
     sticks:   dense  smooth     PW     G-vecs:    dense   smooth      PW
     Sum         139     139     55                 1067     1067     283

     Using Slab Decomposition



     bravais-lattice index     =            2
     lattice parameter (alat)  =       7.1200  a.u.
     unit-cell volume          =      90.2360 (a.u.)^3
     number of atoms/cell      =            1
     number of atomic types    =            1
     number of electrons       =        10.00
     number of Kohn-Sham states=           10
     kinetic-energy cutoff     =      20.0000  Ry
     charge density cutoff     =      80.0000  Ry
     scf convergence threshold =      1.0E-08
     mixing beta               =       0.7000
     number of iterations used =            8  plain     mixing
     Exchange-correlation=  SLA  PZ   NOGX NOGC
                           (   1   1   0   0   0   0   0)
     Non magnetic calculation with spin-orbit


     celldm(1)=   7.120000  celldm(2)=   0.000000  celldm(3)=   0.000000
     celldm(4)=   0.000000  celldm(5)=   0.000000  celldm(6)=   0.000000

     crystal axes: (cart. coord. in units of alat)
               a(1) = (  -0.500000   0.000000   0.500000 )  
               a(2) = (   0.000000   0.500000   0.500000 )  
               a(3) = (  -0.500000   0.500000   0.000000 )  

     reciprocal axes: (cart. coord. in units 2 pi/alat)
               b(1) = ( -1.000000 -1.000000  1.000000 )  
               b(2) = (  1.000000  1.000000  1.000000 )  
               b(3) = ( -1.000000  1.000000 -1.000000 )  


     PseudoPot. # 1 for Pt read from file:
     /home/dashlander/Desktop/Sem7/CPD/Assignment_3/pseudo/Pt.rel-pz-n-rrkjus.UPF
     MD5 check sum: 4baafe8ec1942611396c7a5466f52249
     Pseudo is Ultrasoft + core correction, Zval = 10.0
     Generated by new atomic code, or converted to UPF format
     Using radial grid of 1277 points,  6 beta functions with: 
                l(1) =   2
                l(2) =   2
                l(3) =   2
                l(4) =   2
                l(5) =   1
                l(6) =   1
     Q(r) pseudized with 0 coefficients 


     atomic species   valence    mass     pseudopotential
     Pt               10.00   195.08400     Pt( 1.00)

     48 Sym. Ops., with inversion, found



   Cartesian axes

     site n.     atom                  positions (alat units)
         1        Pt     tau(   1) = (   0.0000000   0.0000000   0.0000000  )

     number of k points=    35
                       cart. coord. in units 2pi/alat
        k(    1) = (   0.0000000   0.0000000   0.0000000), wk =   0.0013717
        k(    2) = (  -0.1111111   0.1111111  -0.1111111), wk =   0.0109739
        k(    3) = (  -0.2222222   0.2222222  -0.2222222), wk =   0.0109739
        k(    4) = (  -0.3333333   0.3333333  -0.3333333), wk =   0.0109739
        k(    5) = (  -0.4444444   0.4444444  -0.4444444), wk =   0.0109739
        k(    6) = (   0.0000000   0.2222222   0.0000000), wk =   0.0082305
        k(    7) = (  -0.1111111   0.3333333  -0.1111111), wk =   0.0329218
        k(    8) = (  -0.2222222   0.4444444  -0.2222222), wk =   0.0329218
        k(    9) = (  -0.3333333   0.5555556  -0.3333333), wk =   0.0329218
        k(   10) = (   0.5555556  -0.3333333   0.5555556), wk =   0.0329218
        k(   11) = (   0.4444444  -0.2222222   0.4444444), wk =   0.0329218
        k(   12) = (   0.3333333  -0.1111111   0.3333333), wk =   0.0329218
        k(   13) = (   0.2222222  -0.0000000   0.2222222), wk =   0.0164609
        k(   14) = (   0.0000000   0.4444444   0.0000000), wk =   0.0082305
        k(   15) = (  -0.1111111   0.5555556  -0.1111111), wk =   0.0329218
        k(   16) = (  -0.2222222   0.6666667  -0.2222222), wk =   0.0329218
        k(   17) = (   0.6666667  -0.2222222   0.6666667), wk =   0.0329218
        k(   18) = (   0.5555556  -0.1111111   0.5555556), wk =   0.0329218
        k(   19) = (   0.4444444   0.0000000   0.4444444), wk =   0.0164609
        k(   20) = (   0.0000000   0.6666667   0.0000000), wk =   0.0082305
        k(   21) = (  -0.1111111   0.7777778  -0.1111111), wk =   0.0329218
        k(   22) = (   0.7777778  -0.1111111   0.7777778), wk =   0.0329218
        k(   23) = (   0.6666667  -0.0000000   0.6666667), wk =   0.0164609
        k(   24) = (   0.0000000   0.8888889   0.0000000), wk =   0.0082305
        k(   25) = (   0.8888889   0.0000000   0.8888889), wk =   0.0164609
        k(   26) = (  -0.2222222   0.4444444   0.0000000), wk =   0.0329218
        k(   27) = (  -0.3333333   0.5555556  -0.1111111), wk =   0.0658436
        k(   28) = (   0.5555556  -0.3333333   0.7777778), wk =   0.0658436
        k(   29) = (  -0.2222222   0.6666667   0.0000000), wk =   0.0329218
        k(   30) = (   0.6666667  -0.2222222   0.8888889), wk =   0.0658436
        k(   31) = (   0.5555556  -0.1111111   0.7777778), wk =   0.0658436
        k(   32) = (   0.4444444   0.0000000   0.6666667), wk =   0.0329218
        k(   33) = (   0.7777778  -0.1111111   1.0000000), wk =   0.0329218
        k(   34) = (   0.6666667  -0.0000000   0.8888889), wk =   0.0329218
        k(   35) = (   0.5555556  -0.1111111   1.0000000), wk =   0.0329218

     Dense  grid:     1067 G-vectors     FFT dimensions: (  15,  15,  15)

     Estimated max dynamical RAM per process >      10.56 MB

     Check: negative core charge=   -0.000038

     Initial potential from superposition of free atoms

     starting charge       9.9999, renormalised to      10.0000

     negative rho (up, down):  1.313E-04 0.000E+00
     Starting wfcs are   12 randomized atomic wfcs

     total cpu time spent up to now is        0.4 secs

     Self-consistent Calculation

     iteration #  1     ecut=    20.00 Ry     beta= 0.70
     Davidson diagonalization with overlap
     ethr =  1.00E-02,  avg # of iterations =  2.3

     Threshold (ethr) on eigenvalues was too large:
     Diagonalizing with lowered threshold

     Davidson diagonalization with overlap
     ethr =  1.31E-05,  avg # of iterations =  7.6

     negative rho (up, down):  2.306E-04 0.000E+00

     total cpu time spent up to now is        0.9 secs

     total energy              =     -69.43205446 Ry
     estimated scf accuracy    <       0.00446286 Ry

     iteration #  2     ecut=    20.00 Ry     beta= 0.70
     Davidson diagonalization with overlap
     ethr =  4.46E-05,  avg # of iterations =  2.1

     negative rho (up, down):  2.591E-04 0.000E+00

     total cpu time spent up to now is        1.1 secs

     total energy              =     -69.43317943 Ry
     estimated scf accuracy    <       0.00038074 Ry

     iteration #  3     ecut=    20.00 Ry     beta= 0.70
     Davidson diagonalization with overlap
     ethr =  3.81E-06,  avg # of iterations =  2.1

     negative rho (up, down):  2.784E-04 0.000E+00

     total cpu time spent up to now is        1.3 secs

     total energy              =     -69.43323903 Ry
     estimated scf accuracy    <       0.00001285 Ry

     iteration #  4     ecut=    20.00 Ry     beta= 0.70
     Davidson diagonalization with overlap
     ethr =  1.29E-07,  avg # of iterations =  6.3

     negative rho (up, down):  2.785E-04 0.000E+00

     total cpu time spent up to now is        1.6 secs

     total energy              =     -69.43325534 Ry
     estimated scf accuracy    <       0.00000163 Ry

     iteration #  5     ecut=    20.00 Ry     beta= 0.70
     Davidson diagonalization with overlap
     ethr =  1.63E-08,  avg # of iterations =  3.9

     negative rho (up, down):  2.794E-04 0.000E+00

     total cpu time spent up to now is        1.8 secs

     total energy              =     -69.43325555 Ry
     estimated scf accuracy    <       0.00000023 Ry

     iteration #  6     ecut=    20.00 Ry     beta= 0.70
     Davidson diagonalization with overlap
     ethr =  2.25E-09,  avg # of iterations =  3.8

     negative rho (up, down):  2.795E-04 0.000E+00

     total cpu time spent up to now is        2.0 secs

     total energy              =     -69.43325566 Ry
     estimated scf accuracy    <       0.00000002 Ry

     iteration #  7     ecut=    20.00 Ry     beta= 0.70
     Davidson diagonalization with overlap
     ethr =  1.75E-10,  avg # of iterations =  3.5

     negative rho (up, down):  2.795E-04 0.000E+00

     total cpu time spent up to now is        2.2 secs

     End of self-consistent calculation

          k = 0.0000 0.0000 0.0000 (   137 PWs)   bands (ev):

     9.1916   9.1916  15.9448  15.9448  15.9448  15.9448  16.9147  16.9147
    19.1365  19.1365

          k =-0.1111 0.1111-0.1111 (   138 PWs)   bands (ev):

     9.7347   9.7347  15.8616  15.8616  16.0850  16.0850  17.0525  17.0525
    18.9415  18.9415

          k =-0.2222 0.2222-0.2222 (   138 PWs)   bands (ev):

    11.0842  11.0842  15.7159  15.7159  16.2002  16.2002  17.3804  17.3804
    18.8659  18.8659

          k =-0.3333 0.3333-0.3333 (   144 PWs)   bands (ev):

    12.1032  12.1032  15.9869  15.9869  16.7622  16.7622  17.0977  17.0977
    19.7915  19.7915

          k =-0.4444 0.4444-0.4444 (   138 PWs)   bands (ev):

    12.2279  12.2279  15.7496  15.7496  16.7529  16.7529  19.1509  19.1509
    20.6735  20.6735

          k = 0.0000 0.2222 0.0000 (   137 PWs)   bands (ev):

     9.9186   9.9186  15.6517  15.6517  16.2794  16.2794  17.1617  17.1617
    18.6380  18.6380

          k =-0.1111 0.3333-0.1111 (   140 PWs)   bands (ev):

    11.0387  11.0387  15.2862  15.2862  16.4565  16.4565  17.5850  17.5850
    18.4477  18.4477

          k =-0.2222 0.4444-0.2222 (   142 PWs)   bands (ev):

    12.3276  12.3276  15.5212  15.5212  16.1319  16.1319  17.4083  17.4083
    19.6004  19.6004

          k =-0.3333 0.5556-0.3333 (   140 PWs)   bands (ev):

    12.6557  12.6557  15.7075  15.7075  16.8173  16.8173  17.3836  17.3836
    20.9737  20.9737

          k = 0.5556-0.3333 0.5556 (   135 PWs)   bands (ev):

    12.6629  12.6629  15.6149  15.6149  16.7911  16.7911  18.1767  18.1767
    20.8834  20.8834

          k = 0.4444-0.2222 0.4444 (   139 PWs)   bands (ev):

    12.6790  12.6790  15.8342  15.8342  16.7495  16.7495  17.0800  17.0800
    19.8077  19.8077

          k = 0.3333-0.1111 0.3333 (   140 PWs)   bands (ev):

    12.0039  12.0039  15.4317  15.4317  16.2711  16.2711  17.4954  17.4954
    18.5857  18.5857

          k = 0.2222-0.0000 0.2222 (   141 PWs)   bands (ev):

    10.5781  10.5781  15.5653  15.5653  16.3053  16.3053  17.3677  17.3677
    18.4972  18.4972

          k = 0.0000 0.4444 0.0000 (   133 PWs)   bands (ev):

    11.7382  11.7382  14.6670  14.6670  16.7990  16.7990  18.2519  18.2519
    18.2675  18.2675

          k =-0.1111 0.5556-0.1111 (   139 PWs)   bands (ev):

    12.7676  12.7676  14.3091  14.3091  16.5322  16.5322  18.4645  18.4645
    19.6256  19.6256

          k =-0.2222 0.6667-0.2222 (   138 PWs)   bands (ev):

    13.2762  13.2762  14.7459  14.7459  16.2586  16.2586  18.1861  18.1861
    21.1284  21.1284

          k = 0.6667-0.2222 0.6667 (   132 PWs)   bands (ev):

    13.4959  13.4959  15.0310  15.0310  16.6043  16.6043  17.8862  17.8862
    20.9729  20.9729

          k = 0.5556-0.1111 0.5556 (   135 PWs)   bands (ev):

    13.8148  13.8148  15.2672  15.2672  16.1552  16.1552  17.6938  17.6938
    19.8402  19.8402

          k = 0.4444 0.0000 0.4444 (   138 PWs)   bands (ev):

    13.4610  13.4610  15.1249  15.1249  15.9130  15.9130  17.7519  17.7519
    18.6504  18.6504

          k = 0.0000 0.6667 0.0000 (   129 PWs)   bands (ev):

    12.7748  12.7748  13.6268  13.6268  17.9992  17.9992  19.7086  19.7086
    19.8369  19.8369

          k =-0.1111 0.7778-0.1111 (   135 PWs)   bands (ev):

    12.8835  12.8835  13.4971  13.4971  18.1924  18.1924  19.8287  19.8287
    21.2105  21.2105

          k = 0.7778-0.1111 0.7778 (   131 PWs)   bands (ev):

    13.2132  13.2132  14.0715  14.0715  17.4623  17.4623  19.3337  19.3337
    21.2177  21.2177

          k = 0.6667-0.0000 0.6667 (   136 PWs)   bands (ev):

    13.8149  13.8149  14.9001  14.9001  16.3607  16.3607  18.6281  18.6281
    20.3751  20.3751

          k = 0.0000 0.8889 0.0000 (   133 PWs)   bands (ev):

    12.4262  12.4262  13.0111  13.0111  20.7143  20.7143  20.8226  20.8226
    21.6688  21.6688

          k = 0.8889 0.0000 0.8889 (   134 PWs)   bands (ev):

    12.6023  12.6023  13.1901  13.1901  19.5287  19.5287  20.5184  20.5184
    21.6704  21.6704

          k =-0.2222 0.4444 0.0000 (   137 PWs)   bands (ev):

    12.2620  12.2620  14.8622  14.8622  16.3062  16.3062  18.1247  18.1247
    18.4294  18.4294

          k =-0.3333 0.5556-0.1111 (   140 PWs)   bands (ev):

    13.3307  13.3307  15.1819  15.1819  15.7299  15.7299  17.9134  17.9134
    19.6338  19.6338

          k = 0.5556-0.3333 0.7778 (   136 PWs)   bands (ev):

    13.4205  13.4205  15.1928  15.1928  16.5494  16.5494  17.6569  17.6569
    20.7256  20.7256

          k =-0.2222 0.6667 0.0000 (   135 PWs)   bands (ev):

    13.3636  13.3636  14.0132  14.0132  16.5105  16.5105  19.5048  19.5048
    19.8315  19.8315

          k = 0.6667-0.2222 0.8889 (   133 PWs)   bands (ev):

    13.6923  13.6923  14.4213  14.4213  16.2474  16.2474  19.0123  19.0123
    20.9119  20.9119

          k = 0.5556-0.1111 0.7778 (   133 PWs)   bands (ev):

    14.1272  14.1272  14.7243  14.7243  16.0214  16.0214  18.4825  18.4825
    20.7940  20.7940

          k = 0.4444 0.0000 0.6667 (   136 PWs)   bands (ev):

    14.5844  14.5844  14.8963  14.8963  15.1258  15.1258  18.5037  18.5037
    19.8930  19.8930

          k = 0.7778-0.1111 1.0000 (   133 PWs)   bands (ev):

    12.9706  12.9706  13.4912  13.4912  18.1776  18.1776  20.1769  20.1769
    21.4621  21.4621

          k = 0.6667-0.0000 0.8889 (   132 PWs)   bands (ev):

    13.4545  13.4545  14.1601  14.1601  17.0716  17.0716  19.2752  19.2752
    21.4350  21.4350

          k = 0.5556-0.1111 1.0000 (   135 PWs)   bands (ev):

    14.0041  14.0041  14.8793  14.8793  15.7109  15.7109  18.7836  18.7836
    21.4066  21.4066

     highest occupied level (ev):    21.6704

!    total energy              =     -69.43325567 Ry
     estimated scf accuracy    <          1.2E-09 Ry

     The total energy is the sum of the following terms:
     one-electron contribution =      20.54493668 Ry
     hartree contribution      =       3.13481896 Ry
     xc contribution           =     -28.71888103 Ry
     ewald contribution        =     -64.39413029 Ry

     convergence has been achieved in   7 iterations

     negative rho (up, down):  2.795E-04 0.000E+00

     Forces acting on atoms (cartesian axes, Ry/au):

     atom    1 type  1   force =     0.00000000    0.00000000    0.00000000

     Total force =     0.000000     Total SCF correction =     0.000000


     Computing stress (Cartesian axis) and pressure


     negative rho (up, down):  2.795E-04 0.000E+00
          total   stress  (Ry/bohr**3)                   (kbar)     P=      586.16
   0.00398466   0.00000000   0.00000000          586.16        0.00        0.00
   0.00000000   0.00398466  -0.00000000            0.00      586.16       -0.00
   0.00000000  -0.00000000   0.00398466            0.00       -0.00      586.16


     Writing all to output data dir ./platinum.save/ :
     XML data file, charge density, pseudopotentials, collected wavefunctions

     init_run     :      0.21s CPU      0.27s WALL (       1 calls)
     electrons    :      1.62s CPU      1.82s WALL (       1 calls)
     forces       :      0.03s CPU      0.03s WALL (       1 calls)
     stress       :      0.16s CPU      0.16s WALL (       1 calls)

     Called by init_run:
     wfcinit      :      0.05s CPU      0.07s WALL (       1 calls)
     potinit      :      0.01s CPU      0.01s WALL (       1 calls)
     hinit0       :      0.15s CPU      0.18s WALL (       1 calls)

     Called by electrons:
     c_bands      :      1.28s CPU      1.45s WALL (       8 calls)
     sum_band     :      0.26s CPU      0.29s WALL (       8 calls)
     v_of_rho     :      0.00s CPU      0.00s WALL (       8 calls)
     newd         :      0.08s CPU      0.09s WALL (       8 calls)
     mix_rho      :      0.00s CPU      0.00s WALL (       8 calls)

     Called by c_bands:
     init_us_2    :      0.02s CPU      0.02s WALL (     665 calls)
     cegterg      :      1.21s CPU      1.37s WALL (     280 calls)

     Called by *egterg:
     cdiaghg      :      0.08s CPU      0.09s WALL (    1350 calls)
     h_psi        :      0.73s CPU      0.85s WALL (    1420 calls)
     s_psi        :      0.11s CPU      0.12s WALL (    1420 calls)
     g_psi        :      0.01s CPU      0.01s WALL (    1105 calls)

     Called by h_psi:
     h_psi:calbec :      0.08s CPU      0.10s WALL (    1420 calls)
     vloc_psi     :      0.52s CPU      0.61s WALL (    1420 calls)
     add_vuspsi   :      0.11s CPU      0.12s WALL (    1420 calls)

     General routines
     calbec       :      0.12s CPU      0.13s WALL (    1875 calls)
     fft          :      0.01s CPU      0.03s WALL (      89 calls)
     ffts         :      0.00s CPU      0.00s WALL (      32 calls)
     fftw         :      0.39s CPU      0.46s WALL (   46248 calls)

     Parallel routines

     PWSCF        :      2.12s CPU      2.39s WALL


   This run was terminated on:  22: 0: 9   4Nov2024            

=------------------------------------------------------------------------------=
   JOB DONE.
=------------------------------------------------------------------------------=
