
     Program PWSCF v.7.3.1 starts on  4Nov2024 at 13:51:44 

     This program is part of the open-source Quantum ESPRESSO suite
     for quantum simulation of materials; please cite
         "P. Giannozzi et al., J. Phys.:Condens. Matter 21 395502 (2009);
         "P. Giannozzi et al., J. Phys.:Condens. Matter 29 465901 (2017);
         "P. Giannozzi et al., J. Chem. Phys. 152 154105 (2020);
          URL http://www.quantum-espresso.org", 
     in publications or presentations arising from this work. More details at
     http://www.quantum-espresso.org/quote

     Parallel version (MPI), running on     1 processors

     MPI processes distributed on     1 nodes
     14418 MiB available memory on the printing compute node when the environment starts

     Waiting for input...
     Reading input from standard input

     Current dimensions of program PWSCF are:
     Max number of different atomic species (ntypx) = 10
     Max number of k-points (npk) =  40000
     Max angular momentum in pseudopotentials (lmaxx) =  4

     Subspace diagonalization in iterative solution of the eigenvalue problem:
     a serial algorithm will be used


     G-vector sticks info
     --------------------
     sticks:   dense  smooth     PW     G-vecs:    dense   smooth      PW
     Sum         151     151     55                 1243     1243     283

     Using Slab Decomposition



     bravais-lattice index     =            2
     lattice parameter (alat)  =       7.3700  a.u.
     unit-cell volume          =     100.0789 (a.u.)^3
     number of atoms/cell      =            1
     number of atomic types    =            1
     number of electrons       =        10.00
     number of Kohn-Sham states=           10
     kinetic-energy cutoff     =      20.0000  Ry
     charge density cutoff     =      80.0000  Ry
     scf convergence threshold =      1.0E-08
     mixing beta               =       0.7000
     number of iterations used =            8  plain     mixing
     Exchange-correlation=  SLA  PZ   NOGX NOGC
                           (   1   1   0   0   0   0   0)
     Non magnetic calculation with spin-orbit


     celldm(1)=   7.370000  celldm(2)=   0.000000  celldm(3)=   0.000000
     celldm(4)=   0.000000  celldm(5)=   0.000000  celldm(6)=   0.000000

     crystal axes: (cart. coord. in units of alat)
               a(1) = (  -0.500000   0.000000   0.500000 )  
               a(2) = (   0.000000   0.500000   0.500000 )  
               a(3) = (  -0.500000   0.500000   0.000000 )  

     reciprocal axes: (cart. coord. in units 2 pi/alat)
               b(1) = ( -1.000000 -1.000000  1.000000 )  
               b(2) = (  1.000000  1.000000  1.000000 )  
               b(3) = ( -1.000000  1.000000 -1.000000 )  


     PseudoPot. # 1 for Pt read from file:
     /home/dashlander/Desktop/Sem7/CPD/Assignment_3/pseudo/Pt.rel-pz-n-rrkjus.UPF
     MD5 check sum: 4baafe8ec1942611396c7a5466f52249
     Pseudo is Ultrasoft + core correction, Zval = 10.0
     Generated by new atomic code, or converted to UPF format
     Using radial grid of 1277 points,  6 beta functions with: 
                l(1) =   2
                l(2) =   2
                l(3) =   2
                l(4) =   2
                l(5) =   1
                l(6) =   1
     Q(r) pseudized with 0 coefficients 


     atomic species   valence    mass     pseudopotential
     Pt               10.00   195.08400     Pt( 1.00)

     48 Sym. Ops., with inversion, found



   Cartesian axes

     site n.     atom                  positions (alat units)
         1        Pt     tau(   1) = (   0.0000000   0.0000000   0.0000000  )

     number of k points=    20
                       cart. coord. in units 2pi/alat
        k(    1) = (   0.0000000   0.0000000   0.0000000), wk =   0.0029155
        k(    2) = (  -0.1428571   0.1428571  -0.1428571), wk =   0.0233236
        k(    3) = (  -0.2857143   0.2857143  -0.2857143), wk =   0.0233236
        k(    4) = (  -0.4285714   0.4285714  -0.4285714), wk =   0.0233236
        k(    5) = (   0.0000000   0.2857143   0.0000000), wk =   0.0174927
        k(    6) = (  -0.1428571   0.4285714  -0.1428571), wk =   0.0699708
        k(    7) = (  -0.2857143   0.5714286  -0.2857143), wk =   0.0699708
        k(    8) = (   0.5714286  -0.2857143   0.5714286), wk =   0.0699708
        k(    9) = (   0.4285714  -0.1428571   0.4285714), wk =   0.0699708
        k(   10) = (   0.2857143  -0.0000000   0.2857143), wk =   0.0349854
        k(   11) = (   0.0000000   0.5714286   0.0000000), wk =   0.0174927
        k(   12) = (  -0.1428571   0.7142857  -0.1428571), wk =   0.0699708
        k(   13) = (   0.7142857  -0.1428571   0.7142857), wk =   0.0699708
        k(   14) = (   0.5714286   0.0000000   0.5714286), wk =   0.0349854
        k(   15) = (   0.0000000   0.8571429   0.0000000), wk =   0.0174927
        k(   16) = (   0.8571429  -0.0000000   0.8571429), wk =   0.0349854
        k(   17) = (  -0.2857143   0.5714286   0.0000000), wk =   0.0699708
        k(   18) = (   0.5714286  -0.2857143   0.8571429), wk =   0.1399417
        k(   19) = (   0.7142857  -0.1428571   1.0000000), wk =   0.0699708
        k(   20) = (   0.5714286   0.0000000   0.8571429), wk =   0.0699708

     Dense  grid:     1243 G-vectors     FFT dimensions: (  15,  15,  15)

     Estimated max dynamical RAM per process >      11.30 MB

     Check: negative core charge=   -0.000029

     Initial potential from superposition of free atoms

     starting charge       9.9999, renormalised to      10.0000

     negative rho (up, down):  1.043E-04 0.000E+00
     Starting wfcs are   12 randomized atomic wfcs

     total cpu time spent up to now is        0.4 secs

     Self-consistent Calculation

     iteration #  1     ecut=    20.00 Ry     beta= 0.70
     Davidson diagonalization with overlap
     ethr =  1.00E-02,  avg # of iterations =  2.0

     Threshold (ethr) on eigenvalues was too large:
     Diagonalizing with lowered threshold

     Davidson diagonalization with overlap
     ethr =  2.88E-05,  avg # of iterations =  6.8

     negative rho (up, down):  1.945E-04 0.000E+00

     total cpu time spent up to now is        0.7 secs

     total energy              =     -69.45308824 Ry
     estimated scf accuracy    <       0.00423334 Ry

     iteration #  2     ecut=    20.00 Ry     beta= 0.70
     Davidson diagonalization with overlap
     ethr =  4.23E-05,  avg # of iterations =  2.1

     negative rho (up, down):  2.196E-04 0.000E+00

     total cpu time spent up to now is        0.8 secs

     total energy              =     -69.45418884 Ry
     estimated scf accuracy    <       0.00042788 Ry

     iteration #  3     ecut=    20.00 Ry     beta= 0.70
     Davidson diagonalization with overlap
     ethr =  4.28E-06,  avg # of iterations =  2.1

     negative rho (up, down):  2.378E-04 0.000E+00

     total cpu time spent up to now is        0.9 secs

     total energy              =     -69.45425722 Ry
     estimated scf accuracy    <       0.00001419 Ry

     iteration #  4     ecut=    20.00 Ry     beta= 0.70
     Davidson diagonalization with overlap
     ethr =  1.42E-07,  avg # of iterations =  6.3

     negative rho (up, down):  2.380E-04 0.000E+00

     total cpu time spent up to now is        1.1 secs

     total energy              =     -69.45427596 Ry
     estimated scf accuracy    <       0.00000385 Ry

     iteration #  5     ecut=    20.00 Ry     beta= 0.70
     Davidson diagonalization with overlap
     ethr =  3.85E-08,  avg # of iterations =  3.0

     negative rho (up, down):  2.383E-04 0.000E+00

     total cpu time spent up to now is        1.3 secs

     End of self-consistent calculation

          k = 0.0000 0.0000 0.0000 (   169 PWs)   bands (ev):

     7.5644   7.5644  13.7626  13.7626  13.7626  13.7626  14.7522  14.7522
    16.5930  16.5930

          k =-0.1429 0.1429-0.1429 (   153 PWs)   bands (ev):

     8.3607   8.3607  13.6597  13.6597  13.9201  13.9201  14.9592  14.9592
    16.3464  16.3464

          k =-0.2857 0.2857-0.2857 (   150 PWs)   bands (ev):

    10.0125  10.0125  13.8877  13.8877  13.9086  13.9086  15.0573  15.0573
    16.7058  16.7058

          k =-0.4286 0.4286-0.4286 (   147 PWs)   bands (ev):

    10.5247  10.5247  13.6181  13.6181  14.6378  14.6378  16.4278  16.4278
    17.7764  17.7764

          k = 0.0000 0.2857 0.0000 (   153 PWs)   bands (ev):

     8.6319   8.6319  13.3529  13.3529  14.1869  14.1869  15.1324  15.1324
    16.0077  16.0077

          k =-0.1429 0.4286-0.1429 (   150 PWs)   bands (ev):

    10.1270  10.1270  12.9968  12.9968  14.1450  14.1450  15.4494  15.4494
    16.3905  16.3905

          k =-0.2857 0.5714-0.2857 (   151 PWs)   bands (ev):

    11.0769  11.0769  13.5370  13.5370  14.1301  14.1301  15.1311  15.1311
    18.0590  18.0590

          k = 0.5714-0.2857 0.5714 (   154 PWs)   bands (ev):

    11.1529  11.1529  13.4187  13.4187  14.6929  14.6929  15.4430  15.4430
    17.9512  17.9512

          k = 0.4286-0.1429 0.4286 (   149 PWs)   bands (ev):

    11.0393  11.0393  13.5760  13.5760  13.9655  13.9655  15.0673  15.0673
    16.6479  16.6479

          k = 0.2857-0.0000 0.2857 (   153 PWs)   bands (ev):

     9.5528   9.5528  13.3017  13.3017  14.1088  14.1088  15.3622  15.3622
    15.8322  15.8322

          k = 0.0000 0.5714 0.0000 (   149 PWs)   bands (ev):

    10.7784  10.7784  12.2033  12.2033  14.7843  14.7843  16.4421  16.4421
    16.5938  16.5938

          k =-0.1429 0.7143-0.1429 (   149 PWs)   bands (ev):

    11.3479  11.3479  12.0537  12.0537  14.8776  14.8776  16.6058  16.6058
    18.1777  18.1777

          k = 0.7143-0.1429 0.7143 (   154 PWs)   bands (ev):

    11.7466  11.7466  12.7129  12.7129  14.4825  14.4825  16.1514  16.1514
    18.1192  18.1192

          k = 0.5714 0.0000 0.5714 (   150 PWs)   bands (ev):

    12.2788  12.2788  13.2040  13.2040  13.6174  13.6174  15.6450  15.6450
    17.0248  17.0248

          k = 0.0000 0.8571 0.0000 (   150 PWs)   bands (ev):

    10.8370  10.8370  11.3646  11.3646  17.7313  17.7313  17.7862  17.7862
    18.6429  18.6429

          k = 0.8571-0.0000 0.8571 (   152 PWs)   bands (ev):

    11.0871  11.0871  11.6199  11.6199  16.4500  16.4500  17.5118  17.5118
    18.6174  18.6174

          k =-0.2857 0.5714 0.0000 (   146 PWs)   bands (ev):

    11.5446  11.5446  12.6276  12.6276  13.7292  13.7292  16.1905  16.1905
    16.5821  16.5821

          k = 0.5714-0.2857 0.8571 (   152 PWs)   bands (ev):

    12.0848  12.0848  12.9171  12.9171  13.7825  13.7825  15.8585  15.8585
    17.8084  17.8084

          k = 0.7143-0.1429 1.0000 (   150 PWs)   bands (ev):

    11.5995  11.5995  12.0199  12.0199  14.9122  14.9122  17.1155  17.1155
    18.3616  18.3616

          k = 0.5714 0.0000 0.8571 (   151 PWs)   bands (ev):

    12.1307  12.1307  12.7769  12.7769  13.9233  13.9233  16.2777  16.2777
    18.3422  18.3422

     highest occupied level (ev):    18.6429

!    total energy              =     -69.45427697 Ry
     estimated scf accuracy    <          1.6E-09 Ry

     The total energy is the sum of the following terms:
     one-electron contribution =      17.65515530 Ry
     hartree contribution      =       3.67308161 Ry
     xc contribution           =     -28.57271639 Ry
     ewald contribution        =     -62.20979750 Ry

     convergence has been achieved in   5 iterations

     negative rho (up, down):  2.383E-04 0.000E+00

     Forces acting on atoms (cartesian axes, Ry/au):

     atom    1 type  1   force =     0.00000000    0.00000000    0.00000000

     Total force =     0.000000     Total SCF correction =     0.000000


     Computing stress (Cartesian axis) and pressure


     negative rho (up, down):  2.383E-04 0.000E+00
          total   stress  (Ry/bohr**3)                   (kbar)     P=      125.50
   0.00085312   0.00000000  -0.00000000          125.50        0.00       -0.00
   0.00000000   0.00085312  -0.00000000            0.00      125.50       -0.00
   0.00000000  -0.00000000   0.00085312            0.00       -0.00      125.50


     Writing all to output data dir ./platinum.save/ :
     XML data file, charge density, pseudopotentials, collected wavefunctions

     init_run     :      0.23s CPU      0.25s WALL (       1 calls)
     electrons    :      0.82s CPU      0.90s WALL (       1 calls)
     forces       :      0.03s CPU      0.03s WALL (       1 calls)
     stress       :      0.12s CPU      0.12s WALL (       1 calls)

     Called by init_run:
     wfcinit      :      0.03s CPU      0.05s WALL (       1 calls)
     potinit      :      0.01s CPU      0.01s WALL (       1 calls)
     hinit0       :      0.17s CPU      0.18s WALL (       1 calls)

     Called by electrons:
     c_bands      :      0.62s CPU      0.68s WALL (       6 calls)
     sum_band     :      0.14s CPU      0.15s WALL (       6 calls)
     v_of_rho     :      0.00s CPU      0.00s WALL (       6 calls)
     newd         :      0.07s CPU      0.07s WALL (       6 calls)
     mix_rho      :      0.00s CPU      0.00s WALL (       6 calls)

     Called by c_bands:
     init_us_2    :      0.01s CPU      0.01s WALL (     300 calls)
     cegterg      :      0.59s CPU      0.64s WALL (     120 calls)

     Called by *egterg:
     cdiaghg      :      0.04s CPU      0.04s WALL (     547 calls)
     h_psi        :      0.35s CPU      0.40s WALL (     587 calls)
     s_psi        :      0.05s CPU      0.06s WALL (     587 calls)
     g_psi        :      0.01s CPU      0.01s WALL (     447 calls)

     Called by h_psi:
     h_psi:calbec :      0.04s CPU      0.05s WALL (     587 calls)
     vloc_psi     :      0.24s CPU      0.28s WALL (     587 calls)
     add_vuspsi   :      0.05s CPU      0.06s WALL (     587 calls)

     General routines
     calbec       :      0.06s CPU      0.07s WALL (     807 calls)
     fft          :      0.03s CPU      0.03s WALL (      69 calls)
     ffts         :      0.00s CPU      0.00s WALL (      24 calls)
     fftw         :      0.18s CPU      0.21s WALL (   20212 calls)

     Parallel routines

     PWSCF        :      1.30s CPU      1.41s WALL


   This run was terminated on:  13:51:46   4Nov2024            

=------------------------------------------------------------------------------=
   JOB DONE.
=------------------------------------------------------------------------------=
