
     Program PWSCF v.7.3.1 starts on  4Nov2024 at 13:51:32 

     This program is part of the open-source Quantum ESPRESSO suite
     for quantum simulation of materials; please cite
         "P. Giannozzi et al., J. Phys.:Condens. Matter 21 395502 (2009);
         "P. Giannozzi et al., J. Phys.:Condens. Matter 29 465901 (2017);
         "P. Giannozzi et al., J. Chem. Phys. 152 154105 (2020);
          URL http://www.quantum-espresso.org", 
     in publications or presentations arising from this work. More details at
     http://www.quantum-espresso.org/quote

     Parallel version (MPI), running on     1 processors

     MPI processes distributed on     1 nodes
     14416 MiB available memory on the printing compute node when the environment starts

     Waiting for input...
     Reading input from standard input

     Current dimensions of program PWSCF are:
     Max number of different atomic species (ntypx) = 10
     Max number of k-points (npk) =  40000
     Max angular momentum in pseudopotentials (lmaxx) =  4

     Subspace diagonalization in iterative solution of the eigenvalue problem:
     a serial algorithm will be used


     G-vector sticks info
     --------------------
     sticks:   dense  smooth     PW     G-vecs:    dense   smooth      PW
     Sum         151     151     55                 1243     1243     283

     Using Slab Decomposition



     bravais-lattice index     =            2
     lattice parameter (alat)  =       7.3700  a.u.
     unit-cell volume          =     100.0789 (a.u.)^3
     number of atoms/cell      =            1
     number of atomic types    =            1
     number of electrons       =        10.00
     number of Kohn-Sham states=           10
     kinetic-energy cutoff     =      20.0000  Ry
     charge density cutoff     =      80.0000  Ry
     scf convergence threshold =      1.0E-08
     mixing beta               =       0.7000
     number of iterations used =            8  plain     mixing
     Exchange-correlation=  SLA  PZ   NOGX NOGC
                           (   1   1   0   0   0   0   0)
     Non magnetic calculation with spin-orbit


     celldm(1)=   7.370000  celldm(2)=   0.000000  celldm(3)=   0.000000
     celldm(4)=   0.000000  celldm(5)=   0.000000  celldm(6)=   0.000000

     crystal axes: (cart. coord. in units of alat)
               a(1) = (  -0.500000   0.000000   0.500000 )  
               a(2) = (   0.000000   0.500000   0.500000 )  
               a(3) = (  -0.500000   0.500000   0.000000 )  

     reciprocal axes: (cart. coord. in units 2 pi/alat)
               b(1) = ( -1.000000 -1.000000  1.000000 )  
               b(2) = (  1.000000  1.000000  1.000000 )  
               b(3) = ( -1.000000  1.000000 -1.000000 )  


     PseudoPot. # 1 for Pt read from file:
     /home/dashlander/Desktop/Sem7/CPD/Assignment_3/pseudo/Pt.rel-pz-n-rrkjus.UPF
     MD5 check sum: 4baafe8ec1942611396c7a5466f52249
     Pseudo is Ultrasoft + core correction, Zval = 10.0
     Generated by new atomic code, or converted to UPF format
     Using radial grid of 1277 points,  6 beta functions with: 
                l(1) =   2
                l(2) =   2
                l(3) =   2
                l(4) =   2
                l(5) =   1
                l(6) =   1
     Q(r) pseudized with 0 coefficients 


     atomic species   valence    mass     pseudopotential
     Pt               10.00   195.08400     Pt( 1.00)

     48 Sym. Ops., with inversion, found



   Cartesian axes

     site n.     atom                  positions (alat units)
         1        Pt     tau(   1) = (   0.0000000   0.0000000   0.0000000  )

     number of k points=    10
                       cart. coord. in units 2pi/alat
        k(    1) = (   0.0000000   0.0000000   0.0000000), wk =   0.0080000
        k(    2) = (  -0.2000000   0.2000000  -0.2000000), wk =   0.0640000
        k(    3) = (  -0.4000000   0.4000000  -0.4000000), wk =   0.0640000
        k(    4) = (   0.0000000   0.4000000   0.0000000), wk =   0.0480000
        k(    5) = (  -0.2000000   0.6000000  -0.2000000), wk =   0.1920000
        k(    6) = (   0.6000000  -0.2000000   0.6000000), wk =   0.1920000
        k(    7) = (   0.4000000   0.0000000   0.4000000), wk =   0.0960000
        k(    8) = (   0.0000000   0.8000000   0.0000000), wk =   0.0480000
        k(    9) = (   0.8000000   0.0000000   0.8000000), wk =   0.0960000
        k(   10) = (   0.6000000  -0.2000000   1.0000000), wk =   0.1920000

     Dense  grid:     1243 G-vectors     FFT dimensions: (  15,  15,  15)

     Estimated max dynamical RAM per process >      10.84 MB

     Check: negative core charge=   -0.000029

     Initial potential from superposition of free atoms

     starting charge       9.9999, renormalised to      10.0000

     negative rho (up, down):  1.043E-04 0.000E+00
     Starting wfcs are   12 randomized atomic wfcs

     total cpu time spent up to now is        0.3 secs

     Self-consistent Calculation

     iteration #  1     ecut=    20.00 Ry     beta= 0.70
     Davidson diagonalization with overlap
     ethr =  1.00E-02,  avg # of iterations =  2.6

     Threshold (ethr) on eigenvalues was too large:
     Diagonalizing with lowered threshold

     Davidson diagonalization with overlap
     ethr =  1.40E-05,  avg # of iterations =  8.1

     negative rho (up, down):  1.939E-04 0.000E+00

     total cpu time spent up to now is        0.5 secs

     total energy              =     -69.44700676 Ry
     estimated scf accuracy    <       0.00536127 Ry

     iteration #  2     ecut=    20.00 Ry     beta= 0.70
     Davidson diagonalization with overlap
     ethr =  5.36E-05,  avg # of iterations =  2.1

     negative rho (up, down):  2.191E-04 0.000E+00

     total cpu time spent up to now is        0.6 secs

     total energy              =     -69.44845373 Ry
     estimated scf accuracy    <       0.00060255 Ry

     iteration #  3     ecut=    20.00 Ry     beta= 0.70
     Davidson diagonalization with overlap
     ethr =  6.03E-06,  avg # of iterations =  2.1

     negative rho (up, down):  2.375E-04 0.000E+00

     total cpu time spent up to now is        0.6 secs

     total energy              =     -69.44855242 Ry
     estimated scf accuracy    <       0.00001651 Ry

     iteration #  4     ecut=    20.00 Ry     beta= 0.70
     Davidson diagonalization with overlap
     ethr =  1.65E-07,  avg # of iterations =  7.2

     negative rho (up, down):  2.374E-04 0.000E+00

     total cpu time spent up to now is        0.7 secs

     total energy              =     -69.44860348 Ry
     estimated scf accuracy    <       0.00000204 Ry

     iteration #  5     ecut=    20.00 Ry     beta= 0.70
     Davidson diagonalization with overlap
     ethr =  2.04E-08,  avg # of iterations =  2.0

     negative rho (up, down):  2.383E-04 0.000E+00

     total cpu time spent up to now is        0.8 secs

     total energy              =     -69.44860254 Ry
     estimated scf accuracy    <       0.00000152 Ry

     iteration #  6     ecut=    20.00 Ry     beta= 0.70
     Davidson diagonalization with overlap
     ethr =  1.52E-08,  avg # of iterations =  2.7

     negative rho (up, down):  2.384E-04 0.000E+00

     total cpu time spent up to now is        0.9 secs

     total energy              =     -69.44860287 Ry
     estimated scf accuracy    <       0.00000052 Ry

     iteration #  7     ecut=    20.00 Ry     beta= 0.70
     Davidson diagonalization with overlap
     ethr =  5.17E-09,  avg # of iterations =  2.1

     negative rho (up, down):  2.384E-04 0.000E+00

     total cpu time spent up to now is        0.9 secs

     total energy              =     -69.44860302 Ry
     estimated scf accuracy    <       0.00000002 Ry

     iteration #  8     ecut=    20.00 Ry     beta= 0.70
     Davidson diagonalization with overlap
     ethr =  2.35E-10,  avg # of iterations =  6.5

     negative rho (up, down):  2.384E-04 0.000E+00

     total cpu time spent up to now is        1.0 secs

     End of self-consistent calculation

          k = 0.0000 0.0000 0.0000 (   169 PWs)   bands (ev):

     7.5644   7.5644  13.7402  13.7402  13.7402  13.7402  14.7312  14.7312
    16.5700  16.5700

          k =-0.2000 0.2000-0.2000 (   153 PWs)   bands (ev):

     9.0269   9.0269  13.5742  13.5742  13.9436  13.9436  15.1051  15.1051
    16.2662  16.2662

          k =-0.4000 0.4000-0.4000 (   147 PWs)   bands (ev):

    10.4987  10.4987  13.6398  13.6398  14.6770  14.6770  15.8275  15.8275
    17.5971  17.5971

          k = 0.0000 0.4000 0.0000 (   153 PWs)   bands (ev):

     9.5329   9.5329  12.8999  12.8999  14.3979  14.3979  15.5975  15.5975
    15.8099  15.8099

          k =-0.2000 0.6000-0.2000 (   147 PWs)   bands (ev):

    11.2845  11.2845  12.8213  12.8213  13.9251  13.9251  15.6505  15.6505
    17.8702  17.8702

          k = 0.6000-0.2000 0.6000 (   153 PWs)   bands (ev):

    11.6207  11.6207  13.1818  13.1818  14.5141  14.5141  15.2915  15.2915
    17.7472  17.7472

          k = 0.4000 0.0000 0.4000 (   152 PWs)   bands (ev):

    10.9914  10.9914  13.0878  13.0878  13.9248  13.9248  15.4367  15.4367
    15.9268  15.9268

          k = 0.0000 0.8000 0.0000 (   146 PWs)   bands (ev):

    10.9063  10.9063  11.4560  11.4560  17.1364  17.1364  17.6301  17.6301
    18.0962  18.0962

          k = 0.8000 0.0000 0.8000 (   146 PWs)   bands (ev):

    11.3279  11.3279  11.9704  11.9704  15.6364  15.6364  17.0880  17.0880
    18.3434  18.3434

          k = 0.6000-0.2000 1.0000 (   156 PWs)   bands (ev):

    12.2322  12.2322  12.6610  12.6610  13.5995  13.5995  16.4894  16.4894
    17.9955  17.9955

     highest occupied level (ev):    18.3434

!    total energy              =     -69.44860305 Ry
     estimated scf accuracy    <          4.5E-11 Ry

     The total energy is the sum of the following terms:
     one-electron contribution =      17.66802907 Ry
     hartree contribution      =       3.65995108 Ry
     xc contribution           =     -28.56678570 Ry
     ewald contribution        =     -62.20979750 Ry

     convergence has been achieved in   8 iterations

     negative rho (up, down):  2.384E-04 0.000E+00

     Forces acting on atoms (cartesian axes, Ry/au):

     atom    1 type  1   force =     0.00000000    0.00000000    0.00000000

     Total force =     0.000000     Total SCF correction =     0.000000


     Computing stress (Cartesian axis) and pressure


     negative rho (up, down):  2.384E-04 0.000E+00
          total   stress  (Ry/bohr**3)                   (kbar)     P=      142.61
   0.00096943  -0.00000000   0.00000000          142.61       -0.00        0.00
  -0.00000000   0.00096943   0.00000000           -0.00      142.61        0.00
   0.00000000  -0.00000000   0.00096943            0.00       -0.00      142.61


     Writing all to output data dir ./platinum.save/ :
     XML data file, charge density, pseudopotentials, collected wavefunctions

     init_run     :      0.19s CPU      0.23s WALL (       1 calls)
     electrons    :      0.64s CPU      0.70s WALL (       1 calls)
     forces       :      0.02s CPU      0.02s WALL (       1 calls)
     stress       :      0.09s CPU      0.09s WALL (       1 calls)

     Called by init_run:
     wfcinit      :      0.03s CPU      0.03s WALL (       1 calls)
     potinit      :      0.01s CPU      0.01s WALL (       1 calls)
     hinit0       :      0.14s CPU      0.17s WALL (       1 calls)

     Called by electrons:
     c_bands      :      0.41s CPU      0.47s WALL (       9 calls)
     sum_band     :      0.14s CPU      0.14s WALL (       9 calls)
     v_of_rho     :      0.00s CPU      0.00s WALL (       9 calls)
     newd         :      0.10s CPU      0.10s WALL (       9 calls)
     mix_rho      :      0.00s CPU      0.00s WALL (       9 calls)

     Called by c_bands:
     init_us_2    :      0.01s CPU      0.01s WALL (     210 calls)
     cegterg      :      0.39s CPU      0.44s WALL (      90 calls)

     Called by *egterg:
     cdiaghg      :      0.03s CPU      0.03s WALL (     434 calls)
     h_psi        :      0.24s CPU      0.28s WALL (     454 calls)
     s_psi        :      0.04s CPU      0.04s WALL (     454 calls)
     g_psi        :      0.00s CPU      0.00s WALL (     354 calls)

     Called by h_psi:
     h_psi:calbec :      0.03s CPU      0.03s WALL (     454 calls)
     vloc_psi     :      0.17s CPU      0.20s WALL (     454 calls)
     add_vuspsi   :      0.03s CPU      0.04s WALL (     454 calls)

     General routines
     calbec       :      0.04s CPU      0.04s WALL (     594 calls)
     fft          :      0.00s CPU      0.03s WALL (      99 calls)
     ffts         :      0.00s CPU      0.00s WALL (      36 calls)
     fftw         :      0.13s CPU      0.15s WALL (   14520 calls)

     Parallel routines

     PWSCF        :      1.04s CPU      1.15s WALL


   This run was terminated on:  13:51:34   4Nov2024            

=------------------------------------------------------------------------------=
   JOB DONE.
=------------------------------------------------------------------------------=
