ITEM: TIMESTEP
0
ITEM: NUMBER OF ATOMS
24
ITEM: BOX BOUNDS pp pp pp
0.0000000000000000e+00 1.0000000000000000e+01
0.0000000000000000e+00 1.0000000000000000e+01
0.0000000000000000e+00 1.0000000000000000e+01
ITEM: ATOMS id type xs ys zs
2 2 0.0656525 0.052007 0.00465997
7 1 0.0336988 0.483744 0.00903127
10 1 0.0128497 0.46587 0.487692
20 2 0.454803 0.442731 0.958597
14 2 0.442297 0.940666 0.0136586
19 1 0.473605 0.518662 0.0208924
24 2 0.451893 0.505757 0.431522
11 2 0.0331725 0.506507 0.576772
5 2 0.0637653 0.99449 0.554225
8 2 0.0198336 0.580821 0.98945
17 2 0.441315 0.943237 0.519255
13 1 0.517646 0.00316466 0.0340596
6 2 0.942778 0.04218 0.455469
9 2 0.946468 0.435435 0.0015184
18 2 0.542783 0.0710157 0.512767
15 2 0.540057 0.0561695 0.952282
22 1 0.50811 0.462426 0.50196
21 2 0.571592 0.538607 0.0205111
1 1 0.988591 0.996877 0.0366269
4 1 0.993457 0.96333 0.490307
12 2 0.953978 0.527623 0.435536
16 1 0.515902 0.985747 0.467978
23 2 0.539996 0.531817 0.566518
3 2 0.945756 0.951116 0.958713
ITEM: TIMESTEP
100
ITEM: NUMBER OF ATOMS
24
ITEM: BOX BOUNDS pp pp pp
0.0000000000000000e+00 1.0000000000000000e+01
0.0000000000000000e+00 1.0000000000000000e+01
0.0000000000000000e+00 1.0000000000000000e+01
ITEM: ATOMS id type xs ys zs
2 2 0.0718581 0.0440666 0.00910696
7 1 0.00332099 0.487209 -0.0368162
10 1 0.0234098 0.475609 0.489374
20 2 0.426792 0.466752 0.979764
14 2 0.469727 0.925814 0.0300229
19 1 0.478132 0.547649 0.00872889
24 2 0.439269 0.479509 0.43699
11 2 0.0290112 0.473398 0.589412
5 2 0.0548271 1.0572 0.531111
8 2 0.0499868 0.573105 0.983963
17 2 0.433271 0.963112 0.481316
13 1 0.487483 0.0206702 0.00237648
6 2 0.943156 -0.0265353 0.44755
9 2 0.977935 0.442355 0.0485786
18 2 0.542204 0.0809096 0.508955
15 2 0.522207 0.020863 0.908721
22 1 0.515384 0.457932 0.497825
21 2 0.573951 0.522239 0.0221528
1 1 1.00046 0.977449 0.0298236
4 1 1.00766 0.969345 0.523718
12 2 0.963152 0.550407 0.462196
16 1 0.510142 0.99129 0.538834
23 2 0.532996 0.53617 0.557382
3 2 0.943665 0.963485 0.948914
ITEM: TIMESTEP
200
ITEM: NUMBER OF ATOMS
24
ITEM: BOX BOUNDS pp pp pp
0.0000000000000000e+00 1.0000000000000000e+01
0.0000000000000000e+00 1.0000000000000000e+01
0.0000000000000000e+00 1.0000000000000000e+01
ITEM: ATOMS id type xs ys zs
13 1 0.461726 0.0615776 0.938653
10 1 0.00511118 0.411577 0.531974
6 2 0.0858232 0.118649 0.493288
15 2 0.391008 0.125208 0.907829
4 1 0.0318819 0.0350207 0.503114
24 2 0.434858 0.488645 0.533932
14 2 0.425264 1.00419 0.0119852
8 2 0.0759896 0.526863 0.909421
5 2 0.0907173 0.955496 0.48848
19 1 0.473731 0.515768 0.951921
12 2 -0.000237371 0.509759 0.513765
17 2 0.612035 0.0235227 0.523501
9 2 0.997773 0.421035 0.00611105
11 2 0.942329 0.387963 0.606141
7 1 0.990863 0.476169 0.92297
21 2 0.51766 0.426013 0.948129
1 1 0.990522 0.935173 0.07221
2 2 0.984283 0.86164 0.139693
23 2 0.586747 0.493592 0.474168
3 2 0.911718 0.995986 0.0817975
16 1 0.533848 0.980431 0.568555
22 1 0.527115 0.524465 0.548269
20 2 0.534124 0.584189 0.911042
18 2 0.562981 0.941654 0.656005
ITEM: TIMESTEP
300
ITEM: NUMBER OF ATOMS
24
ITEM: BOX BOUNDS pp pp pp
0.0000000000000000e+00 1.0000000000000000e+01
0.0000000000000000e+00 1.0000000000000000e+01
0.0000000000000000e+00 1.0000000000000000e+01
ITEM: ATOMS id type xs ys zs
5 2 0.135663 0.149568 0.412677
4 1 0.0642041 0.114592 0.47326
13 1 0.424949 0.100958 0.875057
6 2 0.0433835 0.182969 0.543196
21 2 0.477496 0.395291 0.923835
15 2 0.326436 0.0844269 0.870377
14 2 0.454567 0.0990455 0.970552
9 2 0.011157 0.397646 0.801549
12 2 0.0184761 0.398889 0.539379
8 2 0.0561403 0.449734 0.949635
19 1 0.469877 0.478915 0.869531
24 2 0.465737 0.565593 0.675873
18 2 0.505764 0.919027 0.564266
11 2 0.884011 0.334749 0.606247
7 1 0.996477 0.46767 0.871414
10 1 0.983901 0.330719 0.603857
1 1 0.990053 0.896121 0.12967
2 2 0.909865 0.891565 0.0700962
3 2 0.962382 0.878801 0.224191
23 2 0.50462 0.561232 0.517332
16 1 0.565434 0.986199 0.608167
22 1 0.541144 0.567394 0.610219
20 2 0.543628 0.481673 0.802053
17 2 0.513905 1.03602 0.677901
ITEM: TIMESTEP
400
ITEM: NUMBER OF ATOMS
24
ITEM: BOX BOUNDS pp pp pp
0.0000000000000000e+00 1.0000000000000000e+01
0.0000000000000000e+00 1.0000000000000000e+01
0.0000000000000000e+00 1.0000000000000000e+01
ITEM: ATOMS id type xs ys zs
5 2 0.155039 0.178211 0.358716
4 1 0.103057 0.145464 0.437618
6 2 0.0681758 0.223629 0.489323
13 1 0.393846 0.121762 0.824952
19 1 0.460595 0.394729 0.823793
21 2 0.472937 0.298896 0.798032
15 2 0.327451 0.11282 0.750711
14 2 0.345622 0.126165 0.912445
7 1 0.0176115 0.465306 0.873456
1 1 0.00848636 0.88136 0.17711
3 2 0.0647051 0.94052 0.234898
23 2 0.473399 0.686943 0.619076
8 2 0.0729156 0.54691 0.856656
11 2 0.895401 0.192247 0.628747
12 2 0.853247 0.347218 0.5992
10 1 0.929263 0.286022 0.621032
20 2 0.484655 0.406717 0.920112
16 1 0.571402 0.0171497 0.651488
9 2 0.964533 0.443569 0.79154
17 2 0.517975 0.0600008 0.724353
2 2 0.940724 0.834251 0.23358
18 2 0.612394 0.93254 0.685559
22 1 0.553708 0.62751 0.623354
24 2 0.533198 0.547802 0.680152
ITEM: TIMESTEP
500
ITEM: NUMBER OF ATOMS
24
ITEM: BOX BOUNDS pp pp pp
0.0000000000000000e+00 1.0000000000000000e+01
0.0000000000000000e+00 1.0000000000000000e+01
0.0000000000000000e+00 1.0000000000000000e+01
ITEM: ATOMS id type xs ys zs
5 2 0.14133 0.267374 0.40735
4 1 0.101588 0.176924 0.422821
6 2 0.0216923 0.185363 0.482365
13 1 0.318062 0.118747 0.792005
19 1 0.475496 0.388517 0.769183
21 2 0.469134 0.288721 0.769722
15 2 0.29689 0.100428 0.696005
14 2 0.291203 0.0401206 0.847652
7 1 0.0507089 0.470294 0.880108
20 2 0.385154 0.427769 0.786431
9 2 0.106871 0.387842 0.873227
8 2 0.0312076 0.489408 0.976308
1 1 0.0376594 0.90052 0.243414
3 2 0.0476451 0.998245 0.262122
2 2 0.117451 0.851535 0.27854
23 2 0.479997 0.62243 0.61637
11 2 0.791548 0.140734 0.582921
12 2 0.841112 0.287751 0.531972
10 1 0.869198 0.203557 0.578043
17 2 0.5845 0.0367918 0.764744
16 1 0.629306 0.0318699 0.675479
18 2 0.652243 0.936737 0.654898
22 1 0.551263 0.663028 0.673579
24 2 0.599373 0.590756 0.723198
ITEM: TIMESTEP
600
ITEM: NUMBER OF ATOMS
24
ITEM: BOX BOUNDS pp pp pp
0.0000000000000000e+00 1.0000000000000000e+01
0.0000000000000000e+00 1.0000000000000000e+01
0.0000000000000000e+00 1.0000000000000000e+01
ITEM: ATOMS id type xs ys zs
5 2 0.0679256 0.260511 0.381468
4 1 0.0693739 0.176699 0.435998
3 2 0.0936422 0.0360188 0.337997
13 1 0.294219 0.128591 0.728623
19 1 0.449088 0.415369 0.720546
21 2 0.403219 0.34479 0.666558
15 2 0.225773 0.111521 0.657744
14 2 0.276101 0.0696391 0.80734
7 1 0.101771 0.448389 0.890014
20 2 0.42178 0.407032 0.816383
9 2 0.00468168 0.438558 0.911854
1 1 0.0967384 0.94136 0.305901
2 2 0.181553 0.898408 0.336911
8 2 0.112756 0.514949 0.816195
6 2 0.983585 0.168445 0.486715
11 2 0.756005 0.0844688 0.562867
12 2 0.785459 0.244161 0.545632
10 1 0.819394 0.152249 0.525617
17 2 0.576307 0.0257052 0.682966
18 2 0.651075 0.917938 0.78024
22 1 0.5484 0.691032 0.717923
24 2 0.499566 0.604131 0.709957
23 2 0.646668 0.675021 0.708593
16 1 0.665002 0.990437 0.712787
ITEM: TIMESTEP
700
ITEM: NUMBER OF ATOMS
24
ITEM: BOX BOUNDS pp pp pp
0.0000000000000000e+00 1.0000000000000000e+01
0.0000000000000000e+00 1.0000000000000000e+01
0.0000000000000000e+00 1.0000000000000000e+01
ITEM: ATOMS id type xs ys zs
5 2 0.0561602 0.276751 0.428799
4 1 0.0704359 0.196563 0.486816
3 2 0.144348 0.00202249 0.376275
13 1 0.29493 0.193091 0.617913
19 1 0.384704 0.448937 0.725479
21 2 0.385623 0.367969 0.666799
15 2 0.210171 0.202868 0.565756
14 2 0.273849 0.159878 0.70985
7 1 0.168648 0.433639 0.874263
20 2 0.3022 0.448217 0.781982
8 2 0.0719069 0.410033 0.883421
1 1 0.16649 0.918157 0.326512
2 2 0.261693 0.893114 0.344097
9 2 0.195616 0.493561 0.949641
12 2 0.806375 0.0761537 0.474495
11 2 0.709854 0.092119 0.605243
10 1 0.769515 0.140715 0.541377
17 2 0.567025 0.0171413 0.771739
6 2 0.988745 0.180541 0.542222
18 2 0.593721 0.857211 0.752349
22 1 0.5694 0.668515 0.737897
16 1 0.621896 0.948764 0.723639
23 2 0.585779 0.650998 0.640815
24 2 0.500513 0.604622 0.772137
ITEM: TIMESTEP
800
ITEM: NUMBER OF ATOMS
24
ITEM: BOX BOUNDS pp pp pp
0.0000000000000000e+00 1.0000000000000000e+01
0.0000000000000000e+00 1.0000000000000000e+01
0.0000000000000000e+00 1.0000000000000000e+01
ITEM: ATOMS id type xs ys zs
13 1 0.322323 0.257186 0.55181
19 1 0.383147 0.482525 0.694126
21 2 0.373419 0.399701 0.638939
15 2 0.236263 0.208606 0.567099
14 2 0.359073 0.232477 0.46215
7 1 0.161039 0.423859 0.922056
20 2 0.329872 0.472997 0.778215
8 2 0.0713787 0.468088 0.924243
9 2 0.158615 0.340831 0.977739
4 1 0.0275163 0.172859 0.509921
1 1 0.207775 0.960168 0.375763
2 2 0.221686 0.898905 0.453565
3 2 0.129833 1.02009 0.394043
5 2 1.00981 0.260494 0.465125
6 2 0.940863 0.12575 0.526414
10 1 0.771467 0.0580401 0.562227
12 2 0.750593 0.140512 0.614788
18 2 0.603064 0.835214 0.713974
22 1 0.588731 0.667805 0.707593
16 1 0.587159 0.933509 0.704746
23 2 0.59222 0.640771 0.803806
17 2 0.591694 0.976612 0.794866
24 2 0.530347 0.604163 0.657185
11 2 0.704641 0.986882 0.583925
ITEM: TIMESTEP
900
ITEM: NUMBER OF ATOMS
24
ITEM: BOX BOUNDS pp pp pp
0.0000000000000000e+00 1.0000000000000000e+01
0.0000000000000000e+00 1.0000000000000000e+01
0.0000000000000000e+00 1.0000000000000000e+01
ITEM: ATOMS id type xs ys zs
1 1 0.274968 0.014779 0.432042
3 2 0.185165 0.0469162 0.462086
14 2 0.351376 0.214195 0.453938
13 1 0.294891 0.290985 0.48415
8 2 0.2692 0.43809 0.977217
19 1 0.34691 0.480018 0.695158
21 2 0.336465 0.410016 0.624514
15 2 0.20284 0.258273 0.505519
4 1 0.0258539 0.149657 0.518683
7 1 0.190903 0.430233 0.915509
20 2 0.274514 0.469614 0.763354
9 2 0.147313 0.341126 0.928148
2 2 0.265564 0.965835 0.345347
17 2 0.491159 0.931944 0.601802
5 2 0.991928 0.214256 0.450301
6 2 0.949716 0.117912 0.57521
10 1 0.775344 0.0591687 0.601143
12 2 0.690377 0.097903 0.636923
18 2 0.535109 0.836137 0.726524
22 1 0.591287 0.616201 0.717088
16 1 0.54738 0.925943 0.684284
23 2 0.663155 0.558212 0.678717
24 2 0.501943 0.575439 0.698217
11 2 0.773478 0.959697 0.611239
ITEM: TIMESTEP
1000
ITEM: NUMBER OF ATOMS
24
ITEM: BOX BOUNDS pp pp pp
0.0000000000000000e+00 1.0000000000000000e+01
0.0000000000000000e+00 1.0000000000000000e+01
0.0000000000000000e+00 1.0000000000000000e+01
ITEM: ATOMS id type xs ys zs
1 1 0.357009 0.0311728 0.475101
3 2 0.258311 0.0467086 0.470944
14 2 0.30127 0.234424 0.488206
13 1 0.244379 0.315974 0.477572
15 2 0.147995 0.289383 0.475856
8 2 0.291658 0.452865 0.968708
19 1 0.346153 0.485739 0.668396
21 2 0.31395 0.435093 0.588408
9 2 0.138301 0.467519 0.914549
4 1 0.0120525 0.168982 0.490033
7 1 0.220758 0.411002 0.911957
20 2 0.305198 0.447084 0.75103
2 2 0.387674 0.988652 0.389944
17 2 0.423412 0.896718 0.606409
24 2 0.485002 0.576342 0.691666
18 2 0.54337 0.792879 0.645059
5 2 0.95307 0.118845 0.426728
6 2 0.987087 0.146047 0.584111
10 1 0.775884 0.0386233 0.672953
12 2 0.686006 0.0048916 0.644951
11 2 0.787187 1.02556 0.771449
22 1 0.571868 0.623381 0.707211
16 1 0.518065 0.889353 0.637821
23 2 0.641688 0.556696 0.733255
ITEM: TIMESTEP
1100
ITEM: NUMBER OF ATOMS
24
ITEM: BOX BOUNDS pp pp pp
0.0000000000000000e+00 1.0000000000000000e+01
0.0000000000000000e+00 1.0000000000000000e+01
0.0000000000000000e+00 1.0000000000000000e+01
ITEM: ATOMS id type xs ys zs
1 1 0.342085 0.0560819 0.479387
15 2 0.123782 0.250247 0.458048
14 2 0.286111 0.243454 0.47446
13 1 0.205689 0.302418 0.481913
2 2 0.412654 0.00794688 0.427395
8 2 0.227411 0.31357 0.918622
19 1 0.33284 0.486393 0.659506
21 2 0.282327 0.436491 0.589091
9 2 0.179682 0.459672 0.973779
20 2 0.29037 0.47043 0.748621
7 1 0.239192 0.412387 0.908797
3 2 0.259932 0.999301 0.484557
24 2 0.458507 0.615458 0.664906
5 2 0.835576 0.115806 0.442494
4 1 0.927314 0.119965 0.482076
6 2 0.92442 0.0870259 0.576451
10 1 0.850389 0.0472772 0.722953
11 2 0.814295 0.0795538 0.810449
18 2 0.576119 0.806642 0.614382
22 1 0.553142 0.641401 0.684175
16 1 0.600433 0.903548 0.618645
23 2 0.600021 0.565419 0.72922
17 2 0.517214 0.958937 0.616075
12 2 0.784089 0.985847 0.680169
ITEM: TIMESTEP
1200
ITEM: NUMBER OF ATOMS
48
ITEM: BOX BOUNDS pp pp pp
0.0000000000000000e+00 1.0000000000000000e+01
0.0000000000000000e+00 1.0000000000000000e+01
0.0000000000000000e+00 1.0000000000000000e+01
ITEM: ATOMS id type xs ys zs
1 1 0.369178 0.0218676 0.467274
50 2 0.381269 0.377459 0.39204
49 1 0.31817 0.398052 0.317244
2 2 0.439143 -0.000500437 0.399418
51 2 0.224138 0.394822 0.351118
25 1 0.0722436 0.0562434 0.0917108
26 2 0.147686 0.121604 0.0977347
15 2 0.0784922 0.19161 0.491621
30 2 0.466792 0.293033 0.0341889
28 1 0.486884 0.28542 0.131853
29 2 0.41891 0.33701 0.183988
8 2 0.195417 0.331674 0.900008
19 1 0.315278 0.460881 0.628437
21 2 0.238331 0.417111 0.581927
9 2 0.204082 0.49473 0.898052
20 2 0.314166 0.43606 0.725301
7 1 0.257247 0.410198 0.903318
13 1 0.147297 0.259772 0.516517
14 2 0.226136 0.214055 0.557681
38 2 0.441674 0.739126 0.285567
31 1 0.171344 0.844703 0.386738
32 2 0.13053 0.781318 0.452438
33 2 0.130261 0.830409 0.296694
3 2 0.289171 0.963572 0.453119
24 2 0.464552 0.741612 0.65318
36 2 0.0295475 0.846029 0.843022
34 1 0.0762768 0.809644 0.923598
35 2 0.0827125 0.880936 0.993426
5 2 0.813668 0.0782165 0.442662
4 1 0.910099 0.102459 0.453307
46 1 0.798593 0.281103 0.0817492
47 2 0.831344 0.37226 0.106603
48 2 0.714447 0.261087 0.131937
27 2 0.990371 0.0959227 0.133212
6 2 0.93515 0.0978397 0.550008
10 1 0.895678 0.0545496 0.761014
11 2 0.872392 0.110019 0.840895
12 2 0.813031 0.0108108 0.725568
37 1 0.512745 0.796385 0.326435
39 2 0.56373 0.842944 0.254096
40 1 0.616291 0.87377 0.0813483
41 2 0.665201 0.942243 0.0273177
42 2 0.632405 0.783003 0.0425968
18 2 0.672159 0.851339 0.635779
22 1 0.542661 0.679211 0.655473
16 1 0.677246 0.950944 0.643051
23 2 0.514601 0.589426 0.621543
17 2 0.586397 0.990111 0.628478
ITEM: TIMESTEP
1300
ITEM: NUMBER OF ATOMS
51
ITEM: BOX BOUNDS pp pp pp
0.0000000000000000e+00 1.0000000000000000e+01
0.0000000000000000e+00 1.0000000000000000e+01
0.0000000000000000e+00 1.0000000000000000e+01
ITEM: ATOMS id type xs ys zs
1 1 0.393007 0.0180557 0.475252
50 2 0.296976 0.428684 0.365196
49 1 0.233885 0.374625 0.309545
30 2 0.421357 0.258694 0.118921
51 2 0.195863 0.300457 0.364802
25 1 0.0201675 0.0396703 0.054077
26 2 0.0882588 0.0997345 0.0959799
15 2 0.0998692 0.145193 0.529664
19 1 0.302332 0.421071 0.618422
21 2 0.243528 0.340474 0.611626
9 2 0.323172 0.452205 0.976438
20 2 0.332271 0.432597 0.713136
7 1 0.26052 0.434744 0.900478
13 1 0.18069 0.203677 0.522765
14 2 0.257411 0.150428 0.487008
38 2 0.430096 0.785875 0.297335
31 1 0.158907 0.864142 0.385007
32 2 0.102553 0.783594 0.403347
33 2 0.0998345 0.943343 0.369596
2 2 0.466006 0.96012 0.438994
35 2 0.105983 0.890677 0.929311
36 2 0.0521426 0.907772 0.776094
34 1 0.113385 0.855978 0.835816
23 2 0.432607 0.70463 0.641531
8 2 0.215036 0.519937 0.87453
3 2 0.31556 0.960958 0.502488
5 2 0.824741 0.0957423 0.464488
4 1 0.918136 0.0648259 0.482421
46 1 0.78786 0.220911 0.156499
47 2 0.800595 0.30998 0.200141
48 2 0.694709 0.214335 0.120728
27 2 0.928612 0.0761457 0.0710234
52 1 0.749827 0.486693 0.268059
29 2 0.501831 0.280096 0.259393
28 1 0.510183 0.250748 0.164162
6 2 0.933269 0.0599973 0.581151
10 1 0.923179 0.0297458 0.760302
11 2 0.939628 0.0609686 0.853868
12 2 0.827215 0.00345569 0.750322
17 2 0.613883 0.0317145 0.637808
37 1 0.520843 0.812618 0.329734
39 2 0.588301 0.795282 0.257979
40 1 0.607265 0.874959 0.069974
41 2 0.532621 0.90417 0.010183
53 2 0.831916 0.540502 0.287186
54 2 0.679875 0.545761 0.227839
42 2 0.694395 0.906429 0.032319
18 2 0.633477 0.870343 0.653348
22 1 0.520145 0.745184 0.615216
16 1 0.678031 0.959325 0.663201
24 2 0.519092 0.766213 0.517457
ITEM: TIMESTEP
1400
ITEM: NUMBER OF ATOMS
54
ITEM: BOX BOUNDS pp pp pp
0.0000000000000000e+00 1.0000000000000000e+01
0.0000000000000000e+00 1.0000000000000000e+01
0.0000000000000000e+00 1.0000000000000000e+01
ITEM: ATOMS id type xs ys zs
26 2 0.0123792 0.012069 0.0745317
50 2 0.142634 0.418269 0.277039
49 1 0.224315 0.362692 0.292513
30 2 0.444037 0.235172 0.299676
51 2 0.204665 0.293061 0.361545
28 1 0.492112 0.214653 0.214424
29 2 0.478442 0.289552 0.149591
1 1 0.412832 0.0179589 0.495125
14 2 0.266185 0.141286 0.505723
19 1 0.312236 0.429741 0.610851
21 2 0.282618 0.356539 0.549497
9 2 0.211573 0.44226 0.964589
20 2 0.292021 0.404208 0.705399
7 1 0.264392 0.492513 0.896144
13 1 0.187233 0.201919 0.515215
15 2 0.103444 0.147393 0.517735
38 2 0.392398 0.764078 0.278121
31 1 0.193928 0.852891 0.417844
32 2 0.156843 0.760034 0.419392
33 2 0.119533 0.918266 0.404006
2 2 0.485593 0.971337 0.444803
37 1 0.491059 0.774601 0.290575
35 2 0.232046 0.895697 0.753367
36 2 0.0733552 0.929825 0.771219
34 1 0.143568 0.859568 0.782799
8 2 0.219157 0.579481 0.876391
3 2 0.335427 0.955779 0.507049
5 2 0.90035 0.0375642 0.389513
4 1 0.955529 0.0521256 0.47163
46 1 0.76135 0.154685 0.226336
47 2 0.779118 0.246873 0.260769
48 2 0.662975 0.142368 0.213276
27 2 0.86625 0.084391 0.083591
25 1 0.948873 0.0739096 0.0282419
17 2 0.572508 0.0664995 0.667534
10 1 0.90752 0.0275449 0.771915
11 2 0.937403 0.0620063 0.860906
12 2 0.810872 0.0494036 0.75845
6 2 0.900615 0.0318697 0.552711
52 1 0.731132 0.502843 0.20004
39 2 0.53174 0.809737 0.206251
40 1 0.614824 0.886721 0.0683267
42 2 0.608689 0.986476 0.0716983
53 2 0.695699 0.506862 0.293466
54 2 0.77322 0.590462 0.176557
24 2 0.508339 0.738804 0.491467
18 2 0.609796 0.907706 0.675307
22 1 0.53814 0.755203 0.585504
16 1 0.623221 0.996933 0.718414
57 2 0.982294 0.744077 0.669483
55 1 0.903899 0.736246 0.607897
56 2 0.834236 0.803091 0.633951
41 2 0.629519 0.857404 0.973857
23 2 0.513447 0.676797 0.642448
ITEM: TIMESTEP
1500
ITEM: NUMBER OF ATOMS
63
ITEM: BOX BOUNDS pp pp pp
0.0000000000000000e+00 1.0000000000000000e+01
0.0000000000000000e+00 1.0000000000000000e+01
0.0000000000000000e+00 1.0000000000000000e+01
ITEM: ATOMS id type xs ys zs
14 2 0.279882 0.164009 0.498314
50 2 0.133618 0.417324 0.223048
49 1 0.202979 0.348979 0.245807
30 2 0.40467 0.14942 0.343071
51 2 0.197311 0.326877 0.343169
28 1 0.450384 0.213249 0.281136
29 2 0.381944 0.269644 0.234925
1 1 0.392515 0.0342298 0.499619
60 2 0.190374 0.0641633 0.0548383
13 1 0.206963 0.232407 0.500437
19 1 0.340621 0.49371 0.61167
21 2 0.310549 0.400482 0.591568
9 2 0.211735 0.446814 0.912632
15 2 0.118207 0.186693 0.494745
2 2 0.450799 0.0298523 0.58076
38 2 0.393356 0.825612 0.267342
31 1 0.245297 0.768615 0.474094
3 2 0.357982 0.942809 0.478414
33 2 0.1527 0.770591 0.436386
59 2 0.219121 0.971798 0.1864
37 1 0.471455 0.763452 0.273389
58 1 0.172712 0.975657 0.0979052
35 2 0.171794 0.902827 0.669683
36 2 0.0167176 0.912658 0.719892
34 1 0.0999982 0.857358 0.722388
8 2 0.27356 0.595585 0.939299
7 1 0.245264 0.53032 0.869015
20 2 0.291783 0.527905 0.691954
32 2 0.266217 0.676275 0.506276
5 2 0.904178 0.094181 0.411203
4 1 0.968488 0.0807276 0.48659
46 1 0.747718 0.17677 0.313252
47 2 0.770258 0.27402 0.307389
48 2 0.648568 0.165127 0.307443
27 2 0.881527 0.139426 0.093196
25 1 0.90751 0.0638511 0.0330856
65 2 0.639546 0.236473 0.0622269
52 1 0.70415 0.44533 0.165439
64 1 0.634018 0.156899 0.00191614
26 2 0.992746 0.0230424 0.065787
53 2 0.618817 0.480679 0.203761
6 2 0.922877 0.031918 0.561003
10 1 0.851871 0.011773 0.734385
11 2 0.878202 0.0298181 0.829153
66 2 0.68676 0.174366 0.91877
63 2 0.971707 0.712672 0.0885141
41 2 0.682903 0.818797 0.0799704
40 1 0.598788 0.87223 0.0716357
62 2 0.898938 0.696818 0.23384
39 2 0.537533 0.785884 0.201761
54 2 0.774215 0.516604 0.168734
61 1 0.901683 0.662986 0.139777
42 2 0.621737 0.968455 0.0570063
24 2 0.574649 0.691856 0.481352
18 2 0.604536 0.870429 0.674393
22 1 0.597611 0.716231 0.575578
16 1 0.583361 0.954213 0.72471
57 2 0.97423 0.745553 0.649155
55 1 0.910921 0.721124 0.575703
56 2 0.816879 0.734805 0.60683
23 2 0.588897 0.635509 0.633957
12 2 0.753262 0.995842 0.729645
17 2 0.538846 0.930833 0.81115
ITEM: TIMESTEP
1600
ITEM: NUMBER OF ATOMS
63
ITEM: BOX BOUNDS pp pp pp
0.0000000000000000e+00 1.0000000000000000e+01
0.0000000000000000e+00 1.0000000000000000e+01
0.0000000000000000e+00 1.0000000000000000e+01
ITEM: ATOMS id type xs ys zs
59 2 0.128031 0.0576578 0.211067
50 2 0.0982535 0.310855 0.188852
49 1 0.189006 0.331761 0.225279
30 2 0.418579 0.150251 0.390118
51 2 0.188873 0.318964 0.324457
28 1 0.453386 0.205658 0.314497
29 2 0.378694 0.259509 0.275496
60 2 0.246821 0.0135237 0.108075
15 2 0.111954 0.250346 0.510978
13 1 0.21032 0.263045 0.498211
58 1 0.148869 0.0316788 0.116776
14 2 0.258342 0.179095 0.52363
1 1 0.35547 0.0140465 0.554806
21 2 0.33727 0.4091 0.566328
20 2 0.31102 0.518816 0.684394
38 2 0.414154 0.746795 0.400816
37 1 0.482007 0.717492 0.333456
39 2 0.435587 0.689163 0.249536
35 2 0.139311 0.918535 0.692697
33 2 0.15843 0.796431 0.519229
34 1 0.0539899 0.869356 0.675329
8 2 0.151667 0.5658 0.837494
7 1 0.24985 0.548895 0.846114
3 2 0.324994 0.923273 0.525975
32 2 0.275254 0.682341 0.517879
19 1 0.373583 0.490474 0.611713
2 2 0.419592 1.00503 0.63101
9 2 0.276227 0.554038 0.942436
31 1 0.25361 0.777311 0.495244
5 2 0.892607 0.16329 0.441632
4 1 0.962758 0.152163 0.512024
46 1 0.756992 0.211369 0.362395
47 2 0.752096 0.29158 0.302878
48 2 0.667677 0.166485 0.365255
27 2 0.86089 0.0964976 0.0354959
25 1 0.900564 0.00753628 0.0128728
65 2 0.533443 0.128539 0.115927
52 1 0.708452 0.388585 0.1474
64 1 0.599643 0.138277 0.0416123
53 2 0.616146 0.426961 0.144786
54 2 0.77479 0.45971 0.124154
26 2 0.999617 0.0108552 0.0261996
66 2 0.6519 0.222578 0.0543589
6 2 0.92065 0.117576 0.595872
10 1 0.837765 0.0277236 0.73871
11 2 0.847425 0.00465995 0.835533
12 2 0.743467 0.055457 0.7203
63 2 0.912661 0.713594 0.131659
41 2 0.634616 0.876211 0.107773
40 1 0.611431 0.877213 0.0105024
62 2 0.884826 0.622734 0.26446
61 1 0.887263 0.622616 0.164489
42 2 0.614759 0.971163 -0.02359
24 2 0.57662 0.694523 0.459285
18 2 0.598692 0.823549 0.665157
22 1 0.62694 0.669357 0.541956
16 1 0.549185 0.87614 0.734318
57 2 0.948409 0.746385 0.540517
55 1 0.917317 0.672152 0.481164
56 2 0.818598 0.660172 0.491703
23 2 0.574741 0.601258 0.593315
17 2 0.56102 0.833026 0.823767
36 2 0.977237 0.921645 0.712408
ITEM: TIMESTEP
1700
ITEM: NUMBER OF ATOMS
66
ITEM: BOX BOUNDS pp pp pp
0.0000000000000000e+00 1.0000000000000000e+01
0.0000000000000000e+00 1.0000000000000000e+01
0.0000000000000000e+00 1.0000000000000000e+01
ITEM: ATOMS id type xs ys zs
59 2 0.207811 0.000557918 0.212166
50 2 0.20018 0.24221 0.210627
49 1 0.223399 0.321061 0.267578
30 2 0.428809 0.122206 0.441289
51 2 0.191625 0.305174 0.361055
28 1 0.424312 0.149398 0.345162
29 2 0.371874 0.234147 0.336915
58 1 0.151554 0.0652765 0.160721
68 2 0.250338 0.4861 0.207424
14 2 0.265513 0.204645 0.581074
1 1 0.386939 0.0423141 0.578595
21 2 0.333621 0.432636 0.550931
19 1 0.40747 0.466988 0.608951
15 2 0.114634 0.258738 0.549838
2 2 0.446671 -0.0154258 0.634257
13 1 0.211612 0.270366 0.528391
38 2 0.408179 0.749056 0.396286
37 1 0.47098 0.713133 0.327253
39 2 0.419208 0.662824 0.258053
60 2 0.0924166 1.01516 0.0975482
67 1 0.25003 0.58417 0.187875
69 2 0.17931 0.628857 0.242663
9 2 0.252873 0.600143 0.925026
33 2 0.168146 0.776099 0.501033
34 1 -0.000309457 0.849299 0.600161
8 2 0.172732 0.499014 0.824944
7 1 0.244313 0.56862 0.830511
3 2 0.331471 0.984746 0.518519
32 2 0.29213 0.735666 0.599316
36 2 0.0334725 0.94342 0.600497
20 2 0.368701 0.520033 0.684338
31 1 0.26638 0.786061 0.51687
53 2 0.635128 0.43411 0.0950266
66 2 0.667147 0.166765 0.139244
46 1 0.740889 0.237516 0.360799
47 2 0.718672 0.299578 0.285601
48 2 0.666931 0.171187 0.372232
54 2 0.79211 0.439729 0.139652
26 2 0.903636 0.0872902 0.0405862
65 2 0.517497 0.113532 0.177156
52 1 0.713408 0.379733 0.125281
64 1 0.592211 0.106863 0.111025
6 2 0.907291 0.15111 0.641545
10 1 0.808477 0.0130147 0.73281
4 1 0.934927 0.223856 0.578741
12 2 0.713952 -0.0195716 0.73104
5 2 0.855323 0.255233 0.526985
63 2 0.958944 0.63851 0.114173
41 2 0.536022 0.820445 0.0448494
25 1 0.891489 0.995325 0.00323934
62 2 0.877645 0.644505 0.255668
61 1 0.885649 0.596976 0.16805
24 2 0.600787 0.611768 0.470635
55 1 0.88567 0.674999 0.454789
27 2 0.794236 0.972048 0.00294107
57 2 0.948915 0.734835 0.503979
18 2 0.584467 0.78914 0.602619
22 1 0.640133 0.596642 0.561317
16 1 0.55837 0.856037 0.672215
11 2 0.845608 1.00258 0.825073
35 2 0.912286 0.845084 0.648563
17 2 0.544862 0.809557 0.75972
23 2 0.59483 0.518784 0.604743
40 1 0.578514 0.874746 0.972421
42 2 0.573058 0.971785 0.995953
56 2 0.807918 0.653034 0.513714
ITEM: TIMESTEP
1800
ITEM: NUMBER OF ATOMS
69
ITEM: BOX BOUNDS pp pp pp
0.0000000000000000e+00 1.0000000000000000e+01
0.0000000000000000e+00 1.0000000000000000e+01
0.0000000000000000e+00 1.0000000000000000e+01
ITEM: ATOMS id type xs ys zs
68 2 0.272279 0.454701 0.175141
50 2 0.210213 0.250395 0.232886
49 1 0.250046 0.312954 0.299965
30 2 0.458623 0.0834392 0.424898
51 2 0.208045 0.297154 0.389331
28 1 0.476655 0.139378 0.343993
29 2 0.397399 0.197406 0.325253
58 1 0.124992 0.101029 0.161071
60 2 0.0282497 0.0770484 0.152958
59 2 0.170012 0.0883041 0.0726891
14 2 0.229977 0.200171 0.61138
1 1 0.363424 0.0361432 0.590449
21 2 0.307799 0.391146 0.604402
19 1 0.377886 0.454802 0.636584
15 2 0.0790784 0.258937 0.59035
13 1 0.176479 0.277523 0.5774
2 2 0.4458 0.0290734 0.646699
20 2 0.354476 0.486467 0.728504
38 2 0.397074 0.765277 0.34265
37 1 0.442394 0.685052 0.30379
39 2 0.376332 0.631834 0.25084
69 2 0.203003 0.602232 0.165053
67 1 0.272768 0.541967 0.126311
41 2 0.502399 0.765081 0.00445659
9 2 0.259882 0.570458 0.955172
33 2 0.187464 0.794051 0.573072
31 1 0.280541 0.757492 0.573589
34 1 0.0148403 0.910552 0.562002
7 1 0.240804 0.57787 0.857289
3 2 0.333091 0.944568 0.564105
32 2 0.279008 0.662877 0.605926
8 2 0.151491 0.62081 0.843897
53 2 0.638685 0.371841 0.0298385
66 2 0.655212 0.187123 0.112174
46 1 0.729558 0.250212 0.40229
47 2 0.721837 0.322707 0.333844
48 2 0.651156 0.188618 0.394593
54 2 0.75812 0.437508 0.11978
26 2 0.770791 0.0309261 0.0619437
65 2 0.594041 0.0748962 0.213807
52 1 0.695799 0.359793 0.111035
64 1 0.637908 0.0894886 0.125135
25 1 0.860186 0.000734627 0.0288221
6 2 0.879503 0.14894 0.664132
10 1 0.809365 0.0270473 0.748768
4 1 0.913808 0.230732 0.617947
5 2 0.847148 0.260971 0.549815
11 2 0.838571 0.016949 0.843874
63 2 0.939785 0.576766 0.0825882
57 2 0.922864 0.657647 0.472806
27 2 0.86323 0.90079 0.0275099
62 2 0.874909 0.596059 0.231199
61 1 0.861663 0.554864 0.141046
24 2 0.574131 0.621652 0.413898
55 1 0.86654 0.633776 0.3937
56 2 0.771067 0.625113 0.422158
18 2 0.59786 0.756171 0.628367
22 1 0.606595 0.602096 0.506438
16 1 0.619452 0.838708 0.680535
42 2 0.57362 0.911959 0.999923
35 2 0.949941 0.914396 0.637985
17 2 0.561831 0.842566 0.762174
23 2 0.53909 0.545924 0.554268
40 1 0.536263 0.837586 0.944488
76 1 0.768941 0.669743 0.853823
78 2 0.815596 0.699584 0.770559
12 2 0.747588 0.952172 0.724743
77 2 0.684763 0.722431 0.865569
36 2 0.986546 0.974727 0.490721
ITEM: TIMESTEP
1900
ITEM: NUMBER OF ATOMS
69
ITEM: BOX BOUNDS pp pp pp
0.0000000000000000e+00 1.0000000000000000e+01
0.0000000000000000e+00 1.0000000000000000e+01
0.0000000000000000e+00 1.0000000000000000e+01
ITEM: ATOMS id type xs ys zs
68 2 0.250589 0.395671 0.19301
50 2 0.184078 0.210269 0.281491
49 1 0.264527 0.264487 0.305748
30 2 0.453451 0.109738 0.467291
51 2 0.252966 0.301962 0.397737
28 1 0.493104 0.139703 0.380517
29 2 0.422396 0.183316 0.324855
58 1 0.0675678 0.157796 0.11837
59 2 0.0574104 0.19406 0.025732
69 2 0.124325 0.488658 0.147438
67 1 0.222749 0.474042 0.137487
14 2 0.256478 0.168827 0.590856
1 1 0.343559 0.0192872 0.5981
21 2 0.324216 0.408584 0.629725
19 1 0.347488 0.502951 0.653248
15 2 0.11173 0.244325 0.594633
13 1 0.209093 0.255389 0.574683
38 2 0.363753 0.757286 0.347875
37 1 0.401207 0.691129 0.28291
39 2 0.326633 0.637991 0.242723
36 2 0.0554928 0.992862 0.47518
9 2 0.271331 0.560995 0.967351
33 2 0.172762 0.79609 0.577247
31 1 0.268382 0.767233 0.582142
34 1 0.0329312 0.906175 0.519636
7 1 0.233471 0.583689 0.87762
3 2 0.33718 0.919515 0.595897
32 2 0.272692 0.66806 0.594234
8 2 0.14114 0.620453 0.888729
20 2 0.305188 0.526921 0.740633
41 2 0.452304 0.738294 0.966412
2 2 0.436006 1.04619 0.625118
64 1 0.623949 0.0234081 0.13808
66 2 0.646922 0.104253 0.083892
46 1 0.724984 0.285459 0.421729
47 2 0.768878 0.314166 0.336586
48 2 0.646965 0.226516 0.400781
54 2 0.721292 0.401404 0.0854785
60 2 1.0173 0.0716982 0.126158
65 2 0.582348 0.0518864 0.224441
52 1 0.655296 0.334319 0.051655
6 2 0.889737 0.174733 0.672643
10 1 0.850999 0.0215953 0.753548
4 1 0.935798 0.226667 0.600663
5 2 0.867965 0.277563 0.547671
11 2 0.860866 -0.00783343 0.848609
53 2 0.594059 0.378075 0.985811
63 2 0.902511 0.581036 0.0580207
57 2 0.90129 0.715851 0.419098
27 2 0.867913 0.845257 0.00707224
62 2 0.865653 0.591891 0.216734
61 1 0.878131 0.529091 0.139919
24 2 0.538172 0.655439 0.412146
55 1 0.843525 0.642614 0.383048
56 2 0.765147 0.629086 0.443661
25 1 0.87996 0.930516 0.0579219
26 2 0.791408 0.961446 0.0925907
18 2 0.591147 0.79868 0.61757
22 1 0.577261 0.632752 0.50135
16 1 0.623184 0.86137 0.688589
77 2 0.736987 0.759435 0.882648
35 2 1.00299 0.923622 0.61344
17 2 0.575035 0.842246 0.774123
23 2 0.520265 0.563889 0.546177
40 1 0.528297 0.801139 0.949814
76 1 0.821054 0.713409 0.911183
78 2 0.858897 0.662274 0.834026
12 2 0.777214 0.969907 0.710142
42 2 0.534064 0.867016 1.02483
ITEM: TIMESTEP
2000
ITEM: NUMBER OF ATOMS
75
ITEM: BOX BOUNDS pp pp pp
0.0000000000000000e+00 1.0000000000000000e+01
0.0000000000000000e+00 1.0000000000000000e+01
0.0000000000000000e+00 1.0000000000000000e+01
ITEM: ATOMS id type xs ys zs
68 2 0.155369 0.375456 0.100178
50 2 0.180565 0.185044 0.20599
49 1 0.254998 0.178934 0.272491
69 2 0.0462423 0.470738 0.175537
51 2 0.229476 0.228173 0.355702
67 1 0.143481 0.457217 0.156513
29 2 0.418314 0.148355 0.337141
58 1 0.0277583 0.193594 0.114565
60 2 -0.00584084 0.099561 0.109185
14 2 0.296844 0.187812 0.583596
1 1 0.38633 0.0470701 0.626999
21 2 0.307035 0.445482 0.602354
13 1 0.243953 0.272662 0.581851
15 2 0.146318 0.251064 0.58088
2 2 0.454084 0.0995694 0.678508