
     Program PWSCF v.7.3.1 starts on  4Nov2024 at 13:47:22 

     This program is part of the open-source Quantum ESPRESSO suite
     for quantum simulation of materials; please cite
         "P. Giannozzi et al., J. Phys.:Condens. Matter 21 395502 (2009);
         "P. Giannozzi et al., J. Phys.:Condens. Matter 29 465901 (2017);
         "P. Giannozzi et al., J. Chem. Phys. 152 154105 (2020);
          URL http://www.quantum-espresso.org", 
     in publications or presentations arising from this work. More details at
     http://www.quantum-espresso.org/quote

     Parallel version (MPI), running on     1 processors

     MPI processes distributed on     1 nodes
     14478 MiB available memory on the printing compute node when the environment starts

     Waiting for input...
     Reading input from standard input

     Current dimensions of program PWSCF are:
     Max number of different atomic species (ntypx) = 10
     Max number of k-points (npk) =  40000
     Max angular momentum in pseudopotentials (lmaxx) =  4

     Subspace diagonalization in iterative solution of the eigenvalue problem:
     a serial algorithm will be used


     G-vector sticks info
     --------------------
     sticks:   dense  smooth     PW     G-vecs:    dense   smooth      PW
     Sum         253     253     91                 2741     2741     561

     Using Slab Decomposition



     bravais-lattice index     =            2
     lattice parameter (alat)  =       7.3700  a.u.
     unit-cell volume          =     100.0789 (a.u.)^3
     number of atoms/cell      =            1
     number of atomic types    =            1
     number of electrons       =        10.00
     number of Kohn-Sham states=           10
     kinetic-energy cutoff     =      35.0000  Ry
     charge density cutoff     =     140.0000  Ry
     scf convergence threshold =      1.0E-08
     mixing beta               =       0.7000
     number of iterations used =            8  plain     mixing
     Exchange-correlation=  SLA  PZ   NOGX NOGC
                           (   1   1   0   0   0   0   0)
     Non magnetic calculation with spin-orbit


     celldm(1)=   7.370000  celldm(2)=   0.000000  celldm(3)=   0.000000
     celldm(4)=   0.000000  celldm(5)=   0.000000  celldm(6)=   0.000000

     crystal axes: (cart. coord. in units of alat)
               a(1) = (  -0.500000   0.000000   0.500000 )  
               a(2) = (   0.000000   0.500000   0.500000 )  
               a(3) = (  -0.500000   0.500000   0.000000 )  

     reciprocal axes: (cart. coord. in units 2 pi/alat)
               b(1) = ( -1.000000 -1.000000  1.000000 )  
               b(2) = (  1.000000  1.000000  1.000000 )  
               b(3) = ( -1.000000  1.000000 -1.000000 )  


     PseudoPot. # 1 for Pt read from file:
     /home/dashlander/Desktop/Sem7/CPD/Assignment_3/pseudo/Pt.rel-pz-n-rrkjus.UPF
     MD5 check sum: 4baafe8ec1942611396c7a5466f52249
     Pseudo is Ultrasoft + core correction, Zval = 10.0
     Generated by new atomic code, or converted to UPF format
     Using radial grid of 1277 points,  6 beta functions with: 
                l(1) =   2
                l(2) =   2
                l(3) =   2
                l(4) =   2
                l(5) =   1
                l(6) =   1
     Q(r) pseudized with 0 coefficients 


     atomic species   valence    mass     pseudopotential
     Pt               10.00   195.08400     Pt( 1.00)

     48 Sym. Ops., with inversion, found



   Cartesian axes

     site n.     atom                  positions (alat units)
         1        Pt     tau(   1) = (   0.0000000   0.0000000   0.0000000  )

     number of k points=    35
                       cart. coord. in units 2pi/alat
        k(    1) = (   0.0000000   0.0000000   0.0000000), wk =   0.0013717
        k(    2) = (  -0.1111111   0.1111111  -0.1111111), wk =   0.0109739
        k(    3) = (  -0.2222222   0.2222222  -0.2222222), wk =   0.0109739
        k(    4) = (  -0.3333333   0.3333333  -0.3333333), wk =   0.0109739
        k(    5) = (  -0.4444444   0.4444444  -0.4444444), wk =   0.0109739
        k(    6) = (   0.0000000   0.2222222   0.0000000), wk =   0.0082305
        k(    7) = (  -0.1111111   0.3333333  -0.1111111), wk =   0.0329218
        k(    8) = (  -0.2222222   0.4444444  -0.2222222), wk =   0.0329218
        k(    9) = (  -0.3333333   0.5555556  -0.3333333), wk =   0.0329218
        k(   10) = (   0.5555556  -0.3333333   0.5555556), wk =   0.0329218
        k(   11) = (   0.4444444  -0.2222222   0.4444444), wk =   0.0329218
        k(   12) = (   0.3333333  -0.1111111   0.3333333), wk =   0.0329218
        k(   13) = (   0.2222222  -0.0000000   0.2222222), wk =   0.0164609
        k(   14) = (   0.0000000   0.4444444   0.0000000), wk =   0.0082305
        k(   15) = (  -0.1111111   0.5555556  -0.1111111), wk =   0.0329218
        k(   16) = (  -0.2222222   0.6666667  -0.2222222), wk =   0.0329218
        k(   17) = (   0.6666667  -0.2222222   0.6666667), wk =   0.0329218
        k(   18) = (   0.5555556  -0.1111111   0.5555556), wk =   0.0329218
        k(   19) = (   0.4444444   0.0000000   0.4444444), wk =   0.0164609
        k(   20) = (   0.0000000   0.6666667   0.0000000), wk =   0.0082305
        k(   21) = (  -0.1111111   0.7777778  -0.1111111), wk =   0.0329218
        k(   22) = (   0.7777778  -0.1111111   0.7777778), wk =   0.0329218
        k(   23) = (   0.6666667  -0.0000000   0.6666667), wk =   0.0164609
        k(   24) = (   0.0000000   0.8888889   0.0000000), wk =   0.0082305
        k(   25) = (   0.8888889   0.0000000   0.8888889), wk =   0.0164609
        k(   26) = (  -0.2222222   0.4444444   0.0000000), wk =   0.0329218
        k(   27) = (  -0.3333333   0.5555556  -0.1111111), wk =   0.0658436
        k(   28) = (   0.5555556  -0.3333333   0.7777778), wk =   0.0658436
        k(   29) = (  -0.2222222   0.6666667   0.0000000), wk =   0.0329218
        k(   30) = (   0.6666667  -0.2222222   0.8888889), wk =   0.0658436
        k(   31) = (   0.5555556  -0.1111111   0.7777778), wk =   0.0658436
        k(   32) = (   0.4444444   0.0000000   0.6666667), wk =   0.0329218
        k(   33) = (   0.7777778  -0.1111111   1.0000000), wk =   0.0329218
        k(   34) = (   0.6666667  -0.0000000   0.8888889), wk =   0.0329218
        k(   35) = (   0.5555556  -0.1111111   1.0000000), wk =   0.0329218

     Dense  grid:     2741 G-vectors     FFT dimensions: (  20,  20,  20)

     Estimated max dynamical RAM per process >      26.11 MB

     Check: negative core charge=   -0.000001

     Initial potential from superposition of free atoms

     starting charge       9.9999, renormalised to      10.0000
     Starting wfcs are   12 randomized atomic wfcs

     total cpu time spent up to now is        1.0 secs

     Self-consistent Calculation

     iteration #  1     ecut=    35.00 Ry     beta= 0.70
     Davidson diagonalization with overlap
     ethr =  1.00E-02,  avg # of iterations =  2.2

     Threshold (ethr) on eigenvalues was too large:
     Diagonalizing with lowered threshold

     Davidson diagonalization with overlap
     ethr =  1.67E-05,  avg # of iterations =  7.8

     total cpu time spent up to now is        2.1 secs

     total energy              =     -69.46011484 Ry
     estimated scf accuracy    <       0.00485670 Ry

     iteration #  2     ecut=    35.00 Ry     beta= 0.70
     Davidson diagonalization with overlap
     ethr =  4.86E-05,  avg # of iterations =  2.1

     total cpu time spent up to now is        2.5 secs

     total energy              =     -69.46149756 Ry
     estimated scf accuracy    <       0.00061622 Ry

     iteration #  3     ecut=    35.00 Ry     beta= 0.70
     Davidson diagonalization with overlap
     ethr =  6.16E-06,  avg # of iterations =  2.0

     total cpu time spent up to now is        2.9 secs

     total energy              =     -69.46158770 Ry
     estimated scf accuracy    <       0.00002073 Ry

     iteration #  4     ecut=    35.00 Ry     beta= 0.70
     Davidson diagonalization with overlap
     ethr =  2.07E-07,  avg # of iterations =  6.5

     total cpu time spent up to now is        3.4 secs

     total energy              =     -69.46161143 Ry
     estimated scf accuracy    <       0.00000537 Ry

     iteration #  5     ecut=    35.00 Ry     beta= 0.70
     Davidson diagonalization with overlap
     ethr =  5.37E-08,  avg # of iterations =  2.8

     total cpu time spent up to now is        3.8 secs

     total energy              =     -69.46161267 Ry
     estimated scf accuracy    <       0.00000005 Ry

     iteration #  6     ecut=    35.00 Ry     beta= 0.70
     Davidson diagonalization with overlap
     ethr =  4.83E-10,  avg # of iterations =  8.9

     total cpu time spent up to now is        4.5 secs

     total energy              =     -69.46161287 Ry
     estimated scf accuracy    <       0.00000008 Ry

     iteration #  7     ecut=    35.00 Ry     beta= 0.70
     Davidson diagonalization with overlap
     ethr =  4.83E-10,  avg # of iterations =  4.0

     total cpu time spent up to now is        5.0 secs

     total energy              =     -69.46161285 Ry
     estimated scf accuracy    <       0.00000025 Ry

     iteration #  8     ecut=    35.00 Ry     beta= 0.70
     Davidson diagonalization with overlap
     ethr =  4.83E-10,  avg # of iterations =  3.1

     total cpu time spent up to now is        5.5 secs

     End of self-consistent calculation

          k = 0.0000 0.0000 0.0000 (   339 PWs)   bands (ev):

     7.5651   7.5651  13.7476  13.7476  13.7476  13.7476  14.7395  14.7395
    16.5797  16.5797

          k =-0.1111 0.1111-0.1111 (   335 PWs)   bands (ev):

     8.0566   8.0566  13.6927  13.6927  13.8584  13.8584  14.8538  14.8538
    16.4110  16.4110

          k =-0.2222 0.2222-0.2222 (   353 PWs)   bands (ev):

     9.3037   9.3037  13.5925  13.5925  13.9482  13.9482  15.1403  15.1403
    16.3217  16.3217

          k =-0.3333 0.3333-0.3333 (   347 PWs)   bands (ev):

    10.3342  10.3342  13.7776  13.7776  14.4997  14.4997  14.9040  14.9040
    17.0920  17.0920

          k =-0.4444 0.4444-0.4444 (   356 PWs)   bands (ev):

    10.5176  10.5176  13.5843  13.5843  14.5996  14.5996  16.7316  16.7316
    17.8187  17.8187

          k = 0.0000 0.2222 0.0000 (   339 PWs)   bands (ev):

     8.2226   8.2226  13.5220  13.5220  14.0216  14.0216  14.9359  14.9359
    16.1843  16.1843

          k =-0.1111 0.3333-0.1111 (   346 PWs)   bands (ev):

     9.2500   9.2500  13.2323  13.2323  14.1689  14.1689  15.2996  15.2996
    16.0114  16.0114

          k =-0.2222 0.4444-0.2222 (   346 PWs)   bands (ev):

    10.4958  10.4958  13.4218  13.4218  13.9304  13.9304  15.1548  15.1548
    16.9469  16.9469

          k =-0.3333 0.5556-0.3333 (   346 PWs)   bands (ev):

    10.8857  10.8857  13.5719  13.5719  14.5998  14.5998  15.1254  15.1254
    18.0854  18.0854

          k = 0.5556-0.3333 0.5556 (   353 PWs)   bands (ev):

    10.9085  10.9085  13.4936  13.4936  14.6120  14.6120  15.8185  15.8185
    18.0202  18.0202

          k = 0.4444-0.2222 0.4444 (   348 PWs)   bands (ev):

    10.8800  10.8800  13.6628  13.6628  14.5195  14.5195  14.8748  14.8748
    17.1352  17.1352

          k = 0.3333-0.1111 0.3333 (   345 PWs)   bands (ev):

    10.1593  10.1593  13.3520  13.3520  14.0278  14.0278  15.2341  15.2341
    16.1174  16.1174

          k = 0.2222-0.0000 0.2222 (   345 PWs)   bands (ev):

     8.8253   8.8253  13.4612  13.4612  14.0393  14.0393  15.1171  15.1171
    16.0525  16.0525

          k = 0.0000 0.4444 0.0000 (   347 PWs)   bands (ev):

     9.9042   9.9042  12.7179  12.7179  14.4598  14.4598  15.8420  15.8420
    15.8768  15.8768

          k =-0.1111 0.5556-0.1111 (   343 PWs)   bands (ev):

    10.9098  10.9098  12.4121  12.4121  14.2783  14.2783  16.0174  16.0174
    16.9676  16.9676

          k =-0.2222 0.6667-0.2222 (   349 PWs)   bands (ev):

    11.4604  11.4604  12.7878  12.7878  14.0584  14.0584  15.7855  15.7855
    18.2116  18.2116

          k = 0.6667-0.2222 0.6667 (   360 PWs)   bands (ev):

    11.6653  11.6653  13.0407  13.0407  14.3831  14.3831  15.5418  15.5418
    18.0957  18.0957

          k = 0.5556-0.1111 0.5556 (   350 PWs)   bands (ev):

    11.9129  11.9129  13.2262  13.2262  14.0190  14.0190  15.3579  15.3579
    17.1719  17.1719

          k = 0.4444 0.0000 0.4444 (   351 PWs)   bands (ev):

    11.5066  11.5066  13.0945  13.0945  13.7859  13.7859  15.4042  15.4042
    16.1917  16.1917

          k = 0.0000 0.6667 0.0000 (   343 PWs)   bands (ev):

    11.0087  11.0087  11.8332  11.8332  15.5358  15.5358  17.0627  17.0627
    17.1171  17.1171

          k =-0.1111 0.7778-0.1111 (   344 PWs)   bands (ev):

    11.1639  11.1639  11.7175  11.7175  15.7436  15.7436  17.1447  17.1447
    18.2969  18.2969

          k = 0.7778-0.1111 0.7778 (   352 PWs)   bands (ev):

    11.4712  11.4712  12.2074  12.2074  15.1307  15.1307  16.7317  16.7317
    18.3125  18.3125

          k = 0.6667-0.0000 0.6667 (   353 PWs)   bands (ev):

    11.9810  11.9810  12.9090  12.9090  14.1956  14.1956  16.1334  16.1334
    17.6242  17.6242

          k = 0.0000 0.8889 0.0000 (   343 PWs)   bands (ev):

    10.7853  10.7853  11.3019  11.3019  17.8237  17.8237  17.9494  17.9494
    18.9530  18.9530

          k = 0.8889 0.0000 0.8889 (   351 PWs)   bands (ev):

    10.9478  10.9478  11.4523  11.4523  16.9141  16.9141  17.6888  17.6888
    18.7250  18.7250

          k =-0.2222 0.4444 0.0000 (   345 PWs)   bands (ev):

    10.3850  10.3850  12.8806  12.8806  14.0794  14.0794  15.7447  15.7447
    15.9818  15.9818

          k =-0.3333 0.5556-0.1111 (   350 PWs)   bands (ev):

    11.4397  11.4397  13.1367  13.1367  13.6314  13.6314  15.5529  15.5529
    16.9942  16.9942

          k = 0.5556-0.3333 0.7778 (   355 PWs)   bands (ev):

    11.5775  11.5775  13.1768  13.1768  14.3359  14.3359  15.3564  15.3564
    17.8949  17.8949

          k =-0.2222 0.6667 0.0000 (   345 PWs)   bands (ev):

    11.5280  11.5280  12.1590  12.1590  14.2792  14.2792  16.8772  16.8772
    17.1588  17.1588

          k = 0.6667-0.2222 0.8889 (   353 PWs)   bands (ev):

    11.8674  11.8674  12.5102  12.5102  14.0695  14.0695  16.4779  16.4779
    18.0525  18.0525

          k = 0.5556-0.1111 0.7778 (   361 PWs)   bands (ev):

    12.2428  12.2428  12.7682  12.7682  13.8905  13.8905  16.0356  16.0356
    17.9551  17.9551

          k = 0.4444 0.0000 0.6667 (   349 PWs)   bands (ev):

    12.5672  12.5672  12.9022  12.9022  13.1605  13.1605  16.0446  16.0446
    17.2137  17.2137

          k = 0.7778-0.1111 1.0000 (   354 PWs)   bands (ev):

    11.2642  11.2642  11.7088  11.7088  15.7479  15.7479  17.4307  17.4307
    18.5260  18.5260

          k = 0.6667-0.0000 0.8889 (   353 PWs)   bands (ev):

    11.6911  11.6911  12.2781  12.2781  14.7979  14.7979  16.6934  16.6934
    18.4884  18.4884

          k = 0.5556-0.1111 1.0000 (   359 PWs)   bands (ev):

    12.1696  12.1696  12.8847  12.8847  13.6254  13.6254  16.2936  16.2936
    18.4569  18.4569

     highest occupied level (ev):    18.9530

!    total energy              =     -69.46161290 Ry
     estimated scf accuracy    <          1.2E-13 Ry

     The total energy is the sum of the following terms:
     one-electron contribution =      17.64484773 Ry
     hartree contribution      =       3.67221821 Ry
     xc contribution           =     -28.56888128 Ry
     ewald contribution        =     -62.20979756 Ry

     convergence has been achieved in   8 iterations

     Forces acting on atoms (cartesian axes, Ry/au):

     atom    1 type  1   force =     0.00000000    0.00000000    0.00000000

     Total force =     0.000000     Total SCF correction =     0.000000


     Computing stress (Cartesian axis) and pressure

          total   stress  (Ry/bohr**3)                   (kbar)     P=      126.00
   0.00085654   0.00000000   0.00000000          126.00        0.00        0.00
   0.00000000   0.00085654  -0.00000000            0.00      126.00       -0.00
   0.00000000  -0.00000000   0.00085654            0.00       -0.00      126.00


     Writing all to output data dir ./platinum.save/ :
     XML data file, charge density, pseudopotentials, collected wavefunctions

     init_run     :      0.51s CPU      0.85s WALL (       1 calls)
     electrons    :      4.16s CPU      4.51s WALL (       1 calls)
     forces       :      0.06s CPU      0.07s WALL (       1 calls)
     stress       :      0.34s CPU      0.34s WALL (       1 calls)

     Called by init_run:
     wfcinit      :      0.17s CPU      0.37s WALL (       1 calls)
     potinit      :      0.01s CPU      0.01s WALL (       1 calls)
     hinit0       :      0.30s CPU      0.44s WALL (       1 calls)

     Called by electrons:
     c_bands      :      3.51s CPU      3.81s WALL (       9 calls)
     sum_band     :      0.50s CPU      0.54s WALL (       9 calls)
     v_of_rho     :      0.00s CPU      0.00s WALL (       9 calls)
     newd         :      0.16s CPU      0.17s WALL (       9 calls)
     mix_rho      :      0.01s CPU      0.01s WALL (       9 calls)

     Called by c_bands:
     init_us_2    :      0.05s CPU      0.06s WALL (     735 calls)
     cegterg      :      3.30s CPU      3.59s WALL (     315 calls)

     Called by *egterg:
     cdiaghg      :      0.12s CPU      0.13s WALL (    1659 calls)
     h_psi        :      1.97s CPU      2.33s WALL (    1729 calls)
     s_psi        :      0.31s CPU      0.34s WALL (    1729 calls)
     g_psi        :      0.03s CPU      0.04s WALL (    1379 calls)

     Called by h_psi:
     h_psi:calbec :      0.27s CPU      0.29s WALL (    1729 calls)
     vloc_psi     :      1.37s CPU      1.68s WALL (    1729 calls)
     add_vuspsi   :      0.31s CPU      0.33s WALL (    1729 calls)

     General routines
     calbec       :      0.35s CPU      0.39s WALL (    2219 calls)
     fft          :      0.11s CPU      0.25s WALL (      99 calls)
     ffts         :      0.00s CPU      0.00s WALL (      36 calls)
     fftw         :      1.05s CPU      1.33s WALL (   57064 calls)

     Parallel routines

     PWSCF        :      5.16s CPU      5.87s WALL


   This run was terminated on:  13:47:28   4Nov2024            

=------------------------------------------------------------------------------=
   JOB DONE.
=------------------------------------------------------------------------------=
