
     Program PWSCF v.7.3.1 starts on  4Nov2024 at 22: 1:21 

     This program is part of the open-source Quantum ESPRESSO suite
     for quantum simulation of materials; please cite
         "P. Giannozzi et al., J. Phys.:Condens. Matter 21 395502 (2009);
         "P. Giannozzi et al., J. Phys.:Condens. Matter 29 465901 (2017);
         "P. Giannozzi et al., J. Chem. Phys. 152 154105 (2020);
          URL http://www.quantum-espresso.org", 
     in publications or presentations arising from this work. More details at
     http://www.quantum-espresso.org/quote

     Parallel version (MPI), running on     1 processors

     MPI processes distributed on     1 nodes
     11826 MiB available memory on the printing compute node when the environment starts

     Waiting for input...
     Reading input from standard input

     Current dimensions of program PWSCF are:
     Max number of different atomic species (ntypx) = 10
     Max number of k-points (npk) =  40000
     Max angular momentum in pseudopotentials (lmaxx) =  4

     Subspace diagonalization in iterative solution of the eigenvalue problem:
     a serial algorithm will be used


     G-vector sticks info
     --------------------
     sticks:   dense  smooth     PW     G-vecs:    dense   smooth      PW
     Sum         151     151     61                 1243     1243     307

     Using Slab Decomposition



     bravais-lattice index     =            2
     lattice parameter (alat)  =       7.5000  a.u.
     unit-cell volume          =     105.4688 (a.u.)^3
     number of atoms/cell      =            1
     number of atomic types    =            1
     number of electrons       =        10.00
     number of Kohn-Sham states=           10
     kinetic-energy cutoff     =      20.0000  Ry
     charge density cutoff     =      80.0000  Ry
     scf convergence threshold =      1.0E-08
     mixing beta               =       0.7000
     number of iterations used =            8  plain     mixing
     Exchange-correlation=  SLA  PZ   NOGX NOGC
                           (   1   1   0   0   0   0   0)
     Non magnetic calculation with spin-orbit


     celldm(1)=   7.500000  celldm(2)=   0.000000  celldm(3)=   0.000000
     celldm(4)=   0.000000  celldm(5)=   0.000000  celldm(6)=   0.000000

     crystal axes: (cart. coord. in units of alat)
               a(1) = (  -0.500000   0.000000   0.500000 )  
               a(2) = (   0.000000   0.500000   0.500000 )  
               a(3) = (  -0.500000   0.500000   0.000000 )  

     reciprocal axes: (cart. coord. in units 2 pi/alat)
               b(1) = ( -1.000000 -1.000000  1.000000 )  
               b(2) = (  1.000000  1.000000  1.000000 )  
               b(3) = ( -1.000000  1.000000 -1.000000 )  


     PseudoPot. # 1 for Pt read from file:
     /home/dashlander/Desktop/Sem7/CPD/Assignment_3/pseudo/Pt.rel-pz-n-rrkjus.UPF
     MD5 check sum: 4baafe8ec1942611396c7a5466f52249
     Pseudo is Ultrasoft + core correction, Zval = 10.0
     Generated by new atomic code, or converted to UPF format
     Using radial grid of 1277 points,  6 beta functions with: 
                l(1) =   2
                l(2) =   2
                l(3) =   2
                l(4) =   2
                l(5) =   1
                l(6) =   1
     Q(r) pseudized with 0 coefficients 


     atomic species   valence    mass     pseudopotential
     Pt               10.00   195.08400     Pt( 1.00)

     48 Sym. Ops., with inversion, found



   Cartesian axes

     site n.     atom                  positions (alat units)
         1        Pt     tau(   1) = (   0.0000000   0.0000000   0.0000000  )

     number of k points=    35
                       cart. coord. in units 2pi/alat
        k(    1) = (   0.0000000   0.0000000   0.0000000), wk =   0.0013717
        k(    2) = (  -0.1111111   0.1111111  -0.1111111), wk =   0.0109739
        k(    3) = (  -0.2222222   0.2222222  -0.2222222), wk =   0.0109739
        k(    4) = (  -0.3333333   0.3333333  -0.3333333), wk =   0.0109739
        k(    5) = (  -0.4444444   0.4444444  -0.4444444), wk =   0.0109739
        k(    6) = (   0.0000000   0.2222222   0.0000000), wk =   0.0082305
        k(    7) = (  -0.1111111   0.3333333  -0.1111111), wk =   0.0329218
        k(    8) = (  -0.2222222   0.4444444  -0.2222222), wk =   0.0329218
        k(    9) = (  -0.3333333   0.5555556  -0.3333333), wk =   0.0329218
        k(   10) = (   0.5555556  -0.3333333   0.5555556), wk =   0.0329218
        k(   11) = (   0.4444444  -0.2222222   0.4444444), wk =   0.0329218
        k(   12) = (   0.3333333  -0.1111111   0.3333333), wk =   0.0329218
        k(   13) = (   0.2222222  -0.0000000   0.2222222), wk =   0.0164609
        k(   14) = (   0.0000000   0.4444444   0.0000000), wk =   0.0082305
        k(   15) = (  -0.1111111   0.5555556  -0.1111111), wk =   0.0329218
        k(   16) = (  -0.2222222   0.6666667  -0.2222222), wk =   0.0329218
        k(   17) = (   0.6666667  -0.2222222   0.6666667), wk =   0.0329218
        k(   18) = (   0.5555556  -0.1111111   0.5555556), wk =   0.0329218
        k(   19) = (   0.4444444   0.0000000   0.4444444), wk =   0.0164609
        k(   20) = (   0.0000000   0.6666667   0.0000000), wk =   0.0082305
        k(   21) = (  -0.1111111   0.7777778  -0.1111111), wk =   0.0329218
        k(   22) = (   0.7777778  -0.1111111   0.7777778), wk =   0.0329218
        k(   23) = (   0.6666667  -0.0000000   0.6666667), wk =   0.0164609
        k(   24) = (   0.0000000   0.8888889   0.0000000), wk =   0.0082305
        k(   25) = (   0.8888889   0.0000000   0.8888889), wk =   0.0164609
        k(   26) = (  -0.2222222   0.4444444   0.0000000), wk =   0.0329218
        k(   27) = (  -0.3333333   0.5555556  -0.1111111), wk =   0.0658436
        k(   28) = (   0.5555556  -0.3333333   0.7777778), wk =   0.0658436
        k(   29) = (  -0.2222222   0.6666667   0.0000000), wk =   0.0329218
        k(   30) = (   0.6666667  -0.2222222   0.8888889), wk =   0.0658436
        k(   31) = (   0.5555556  -0.1111111   0.7777778), wk =   0.0658436
        k(   32) = (   0.4444444   0.0000000   0.6666667), wk =   0.0329218
        k(   33) = (   0.7777778  -0.1111111   1.0000000), wk =   0.0329218
        k(   34) = (   0.6666667  -0.0000000   0.8888889), wk =   0.0329218
        k(   35) = (   0.5555556  -0.1111111   1.0000000), wk =   0.0329218

     Dense  grid:     1243 G-vectors     FFT dimensions: (  15,  15,  15)

     Estimated max dynamical RAM per process >      12.09 MB

     Check: negative core charge=   -0.000060

     Initial potential from superposition of free atoms

     starting charge       9.9999, renormalised to      10.0000

     negative rho (up, down):  2.021E-04 0.000E+00
     Starting wfcs are   12 randomized atomic wfcs

     total cpu time spent up to now is        0.4 secs

     Self-consistent Calculation

     iteration #  1     ecut=    20.00 Ry     beta= 0.70
     Davidson diagonalization with overlap
     ethr =  1.00E-02,  avg # of iterations =  2.1

     Threshold (ethr) on eigenvalues was too large:
     Diagonalizing with lowered threshold

     Davidson diagonalization with overlap
     ethr =  2.45E-05,  avg # of iterations =  7.0

     negative rho (up, down):  2.865E-04 0.000E+00

     total cpu time spent up to now is        0.9 secs

     total energy              =     -69.45667464 Ry
     estimated scf accuracy    <       0.00387953 Ry

     iteration #  2     ecut=    20.00 Ry     beta= 0.70
     Davidson diagonalization with overlap
     ethr =  3.88E-05,  avg # of iterations =  2.1

     negative rho (up, down):  3.108E-04 0.000E+00

     total cpu time spent up to now is        1.2 secs

     total energy              =     -69.45769176 Ry
     estimated scf accuracy    <       0.00046576 Ry

     iteration #  3     ecut=    20.00 Ry     beta= 0.70
     Davidson diagonalization with overlap
     ethr =  4.66E-06,  avg # of iterations =  2.0

     negative rho (up, down):  3.288E-04 0.000E+00

     total cpu time spent up to now is        1.4 secs

     total energy              =     -69.45776675 Ry
     estimated scf accuracy    <       0.00001437 Ry

     iteration #  4     ecut=    20.00 Ry     beta= 0.70
     Davidson diagonalization with overlap
     ethr =  1.44E-07,  avg # of iterations =  6.1

     negative rho (up, down):  3.289E-04 0.000E+00

     total cpu time spent up to now is        1.7 secs

     total energy              =     -69.45778550 Ry
     estimated scf accuracy    <       0.00000336 Ry

     iteration #  5     ecut=    20.00 Ry     beta= 0.70
     Davidson diagonalization with overlap
     ethr =  3.36E-08,  avg # of iterations =  3.1

     negative rho (up, down):  3.292E-04 0.000E+00

     total cpu time spent up to now is        1.9 secs

     total energy              =     -69.45778590 Ry
     estimated scf accuracy    <       0.00000033 Ry

     iteration #  6     ecut=    20.00 Ry     beta= 0.70
     Davidson diagonalization with overlap
     ethr =  3.30E-09,  avg # of iterations =  5.3

     negative rho (up, down):  3.293E-04 0.000E+00

     total cpu time spent up to now is        2.2 secs

     total energy              =     -69.45778618 Ry
     estimated scf accuracy    <       0.00000006 Ry

     iteration #  7     ecut=    20.00 Ry     beta= 0.70
     Davidson diagonalization with overlap
     ethr =  6.44E-10,  avg # of iterations =  3.4

     negative rho (up, down):  3.293E-04 0.000E+00

     total cpu time spent up to now is        2.4 secs

     total energy              =     -69.45778619 Ry
     estimated scf accuracy    <       0.00000008 Ry

     iteration #  8     ecut=    20.00 Ry     beta= 0.70
     Davidson diagonalization with overlap
     ethr =  6.44E-10,  avg # of iterations =  2.1

     negative rho (up, down):  3.293E-04 0.000E+00

     total cpu time spent up to now is        2.6 secs

     End of self-consistent calculation

          k = 0.0000 0.0000 0.0000 (   169 PWs)   bands (ev):

     6.8140   6.8140  12.7335  12.7335  12.7335  12.7335  13.7339  13.7339
    15.4044  15.4044

          k =-0.1111 0.1111-0.1111 (   165 PWs)   bands (ev):

     7.2823   7.2823  12.6898  12.6898  12.8310  12.8310  13.8375  13.8375
    15.2479  15.2479

          k =-0.2222 0.2222-0.2222 (   159 PWs)   bands (ev):

     8.4819   8.4819  12.6095  12.6095  12.9093  12.9093  14.1042  14.1042
    15.1523  15.1523

          k =-0.3333 0.3333-0.3333 (   153 PWs)   bands (ev):

     9.5158   9.5158  12.7577  12.7577  13.4512  13.4512  13.8883  13.8883
    15.8534  15.8534

          k =-0.4444 0.4444-0.4444 (   162 PWs)   bands (ev):

     9.7276   9.7276  12.5844  12.5844  13.6020  13.6020  15.6024  15.6024
    16.5178  16.5178

          k = 0.0000 0.2222 0.0000 (   165 PWs)   bands (ev):

     7.4402   7.4402  12.5368  12.5368  12.9793  12.9793  13.9079  13.9079
    15.0535  15.0535

          k =-0.1111 0.3333-0.1111 (   158 PWs)   bands (ev):

     8.4249   8.4249  12.2814  12.2814  13.1126  13.1126  14.2427  14.2427
    14.8878  14.8878

          k =-0.2222 0.4444-0.2222 (   155 PWs)   bands (ev):

     9.6484   9.6484  12.4500  12.4500  12.9122  12.9122  14.1131  14.1131
    15.7254  15.7254

          k =-0.3333 0.5556-0.3333 (   158 PWs)   bands (ev):

    10.0681  10.0681  12.5817  12.5817  13.5734  13.5734  14.0815  14.0815
    16.7638  16.7638

          k = 0.5556-0.3333 0.5556 (   162 PWs)   bands (ev):

    10.0987  10.0987  12.5106  12.5106  13.6037  13.6037  14.7253  14.7253
    16.7092  16.7092

          k = 0.4444-0.2222 0.4444 (   155 PWs)   bands (ev):

    10.0486  10.0486  12.6580  12.6580  13.4854  13.4854  13.8554  13.8554
    15.9068  15.9068

          k = 0.3333-0.1111 0.3333 (   157 PWs)   bands (ev):

     9.3071   9.3071  12.3893  12.3893  12.9908  12.9908  14.1881  14.1881
    14.9790  14.9790

          k = 0.2222-0.0000 0.2222 (   159 PWs)   bands (ev):

     8.0169   8.0169  12.4869  12.4869  12.9936  12.9936  14.0767  14.0767
    14.9258  14.9258

          k = 0.0000 0.4444 0.0000 (   161 PWs)   bands (ev):

     9.0575   9.0575  11.8157  11.8157  13.3788  13.3788  14.7223  14.7223
    14.7797  14.7797

          k =-0.1111 0.5556-0.1111 (   156 PWs)   bands (ev):

    10.0496  10.0496  11.5349  11.5349  13.2343  13.2343  14.8891  14.8891
    15.7437  15.7437

          k =-0.2222 0.6667-0.2222 (   156 PWs)   bands (ev):

    10.6202  10.6202  11.8795  11.8795  13.0420  13.0420  14.6776  14.6776
    16.8784  16.8784

          k = 0.6667-0.2222 0.6667 (   162 PWs)   bands (ev):

    10.8193  10.8193  12.1153  12.1153  13.3579  13.3579  14.4587  14.4587
    16.7799  16.7799

          k = 0.5556-0.1111 0.5556 (   161 PWs)   bands (ev):

    11.0339  11.0339  12.2767  12.2767  13.0329  13.0329  14.2779  14.2779
    15.9445  15.9445

          k = 0.4444 0.0000 0.4444 (   158 PWs)   bands (ev):

    10.6042  10.6042  12.1543  12.1543  12.7984  12.7984  14.3201  14.3201
    15.0578  15.0578

          k = 0.0000 0.6667 0.0000 (   154 PWs)   bands (ev):

    10.1907  10.1907  11.0051  11.0051  14.3956  14.3956  15.8478  15.8478
    15.8691  15.8691

          k =-0.1111 0.7778-0.1111 (   162 PWs)   bands (ev):

    10.3668  10.3668  10.8960  10.8960  14.6102  14.6102  15.9092  15.9092
    16.9650  16.9650

          k = 0.7778-0.1111 0.7778 (   160 PWs)   bands (ev):

    10.6643  10.6643  11.3446  11.3446  14.0530  14.0530  15.5323  15.5323
    16.9865  16.9865

          k = 0.6667-0.0000 0.6667 (   164 PWs)   bands (ev):

    11.1312  11.1312  11.9845  11.9845  13.1971  13.1971  14.9808  14.9808
    16.3606  16.3606

          k = 0.0000 0.8889 0.0000 (   162 PWs)   bands (ev):

    10.0254  10.0254  10.5141  10.5141  16.5048  16.5048  16.6245  16.6245
    17.7040  17.7040

          k = 0.8889 0.0000 0.8889 (   154 PWs)   bands (ev):

    10.1811  10.1811  10.6509  10.6509  15.7050  15.7050  16.3939  16.3939
    17.3836  17.3836

          k =-0.2222 0.4444 0.0000 (   154 PWs)   bands (ev):

     9.5191   9.5191  11.9633  11.9633  13.0473  13.0473  14.6475  14.6475
    14.8525  14.8525

          k =-0.3333 0.5556-0.1111 (   155 PWs)   bands (ev):

    10.5648  10.5648  12.1897  12.1897  12.6595  12.6595  14.4631  14.4631
    15.7794  15.7794

          k = 0.5556-0.3333 0.7778 (   159 PWs)   bands (ev):

    10.7261  10.7261  12.2393  12.2393  13.3138  13.3138  14.2932  14.2932
    16.5980  16.5980

          k =-0.2222 0.6667 0.0000 (   159 PWs)   bands (ev):

    10.6767  10.6767  11.3021  11.3021  13.2470  13.2470  15.6664  15.6664
    15.9293  15.9293

          k = 0.6667-0.2222 0.8889 (   161 PWs)   bands (ev):

    11.0216  11.0216  11.6248  11.6248  13.0637  13.0637  15.3086  15.3086
    16.7424  16.7424

          k = 0.5556-0.1111 0.7778 (   161 PWs)   bands (ev):

    11.3682  11.3682  11.8613  11.8613  12.9075  12.9075  14.9053  14.9053
    16.6557  16.6557

          k = 0.4444 0.0000 0.6667 (   160 PWs)   bands (ev):

    11.6342  11.6342  11.9753  11.9753  12.2533  12.2533  14.9083  14.9083
    15.9818  15.9818

          k = 0.7778-0.1111 1.0000 (   163 PWs)   bands (ev):

    10.4728  10.4728  10.8864  10.8864  14.6241  14.6241  16.1681  16.1681
    17.1857  17.1857

          k = 0.6667-0.0000 0.8889 (   162 PWs)   bands (ev):

    10.8729  10.8729  11.4077  11.4077  13.7471  13.7471  15.5025  15.5025
    17.1451  17.1451

          k = 0.5556-0.1111 1.0000 (   160 PWs)   bands (ev):

    11.3165  11.3165  11.9603  11.9603  12.6646  12.6646  15.1436  15.1436
    17.1101  17.1101

     highest occupied level (ev):    17.7040

!    total energy              =     -69.45778620 Ry
     estimated scf accuracy    <          3.7E-12 Ry

     The total energy is the sum of the following terms:
     one-electron contribution =      16.21359321 Ry
     hartree contribution      =       3.97055501 Ry
     xc contribution           =     -28.51044006 Ry
     ewald contribution        =     -61.13149436 Ry

     convergence has been achieved in   8 iterations

     negative rho (up, down):  3.293E-04 0.000E+00

     Forces acting on atoms (cartesian axes, Ry/au):

     atom    1 type  1   force =     0.00000000    0.00000000    0.00000000

     Total force =     0.000000     Total SCF correction =     0.000000


     Computing stress (Cartesian axis) and pressure


     negative rho (up, down):  3.293E-04 0.000E+00
          total   stress  (Ry/bohr**3)                   (kbar)     P=      -32.02
  -0.00021764   0.00000000   0.00000000          -32.02        0.00        0.00
   0.00000000  -0.00021764  -0.00000000            0.00      -32.02       -0.00
   0.00000000  -0.00000000  -0.00021764            0.00       -0.00      -32.02


     Writing all to output data dir ./platinum.save/ :
     XML data file, charge density, pseudopotentials, collected wavefunctions

     init_run     :      0.24s CPU      0.28s WALL (       1 calls)
     electrons    :      2.06s CPU      2.25s WALL (       1 calls)
     forces       :      0.04s CPU      0.04s WALL (       1 calls)
     stress       :      0.16s CPU      0.16s WALL (       1 calls)

     Called by init_run:
     wfcinit      :      0.06s CPU      0.08s WALL (       1 calls)
     potinit      :      0.01s CPU      0.01s WALL (       1 calls)
     hinit0       :      0.16s CPU      0.18s WALL (       1 calls)

     Called by electrons:
     c_bands      :      1.65s CPU      1.80s WALL (       9 calls)
     sum_band     :      0.31s CPU      0.35s WALL (       9 calls)
     v_of_rho     :      0.00s CPU      0.00s WALL (       9 calls)
     newd         :      0.10s CPU      0.10s WALL (       9 calls)
     mix_rho      :      0.00s CPU      0.00s WALL (       9 calls)

     Called by c_bands:
     init_us_2    :      0.03s CPU      0.03s WALL (     735 calls)
     cegterg      :      1.55s CPU      1.69s WALL (     315 calls)

     Called by *egterg:
     cdiaghg      :      0.10s CPU      0.11s WALL (    1447 calls)
     h_psi        :      0.90s CPU      1.00s WALL (    1517 calls)
     s_psi        :      0.14s CPU      0.16s WALL (    1517 calls)
     g_psi        :      0.01s CPU      0.02s WALL (    1167 calls)

     Called by h_psi:
     h_psi:calbec :      0.11s CPU      0.13s WALL (    1517 calls)
     vloc_psi     :      0.62s CPU      0.69s WALL (    1517 calls)
     add_vuspsi   :      0.14s CPU      0.16s WALL (    1517 calls)

     General routines
     calbec       :      0.15s CPU      0.17s WALL (    2007 calls)
     fft          :      0.02s CPU      0.03s WALL (      99 calls)
     ffts         :      0.00s CPU      0.00s WALL (      36 calls)
     fftw         :      0.46s CPU      0.52s WALL (   51740 calls)

     Parallel routines

     PWSCF        :      2.61s CPU      2.84s WALL


   This run was terminated on:  22: 1:23   4Nov2024            

=------------------------------------------------------------------------------=
   JOB DONE.
=------------------------------------------------------------------------------=
