LAMMPS data file via write_data, version 29 Aug 2024, timestep = 100100, units = real

4353 atoms
7 atom types
3924 bonds
5 bond types
4653 angles
5 angle types
6987 dihedrals
1 dihedral types
1158 impropers
1 improper types

-0.1495 32.8505 xlo xhi
-0.193001 32.806999 ylo yhi
-38.75 41.25 zlo zhi

Masses

1 12.0107
2 12.0107
3 12.0107
4 12.0107
5 1.00794
6 15.9994
7 15.9994

Pair Coeffs # lj/cut

1 0.0859 3.3997
2 0.0559 2.757
3 0.0859 3.3997
4 0.0859 3.3997
5 0 1
6 0.1598 3.033
7 0.1521 3.1507

Bond Coeffs # harmonic

1 938 1.42
2 190.96 1.149
3 938 1.42
4 938 1.42
5 450 0.9572

Angle Coeffs # harmonic

1 126 120
2 126 120
3 126 120
4 55 104.52
5 295.4 180

Atoms # full

3876 1 4 0 1.7530397975782481 0.9800743634905691 -30 0 0 0
3879 4 4 0 2.072851826969371 3.778572460604469 -30 0 0 0
3880 5 4 0 4.1427843926916665 0.9861386916027075 -30 0 0 0
3881 6 4 0 2.982425160194949 1.6755385518005828 -30 0 0 0
3882 7 4 0 3.166082750485951 3.0536651445855103 -30 0 0 0
3883 8 4 0 4.3081072859442955 3.6861767556272365 -30 0 0 0
3885 10 4 0 5.337921137036351 1.6341467742461042 -30 0 0 0
3886 11 4 0 5.412626134845835 2.970217885399845 -30 0 0 0
3932 57 4 0 1.930875218201115 5.079279203761704 -30 0 0 0
3936 61 4 0 4.282199141415693 5.01205766007695 -30 0 0 0
3937 62 4 0 3.130368779915736 5.703808741015053 -30 0 0 0
3941 66 4 0 5.446121620976997 5.65352916304053 -30 0 0 0
3877 2 4 0 0.6549703122799412 1.7836295957303434 -30 0 0 0
3878 3 4 0 1.5690324242310767 2.628679575871804 -30 0 0 0
3933 58 4 0 0.7634201913855307 5.721534407054536 -30 0 0 0
3884 9 4 0 6.501902470206926 0.969322835341949 -30 0 0 0
3887 12 4 0 6.56764954503872 3.6300743898299 -30 0 0 0
3940 65 4 0 6.585621832399118 4.967163653834862 -30 0 0 0
3888 13 4 0 8.832782806387796 0.9675885555898919 -30 0 0 0
3889 14 4 0 7.672947628198855 1.6277054865037317 -30 0 0 0
3890 15 4 0 7.708241610534083 2.9590447326316296 -30 0 0 0
3891 16 4 0 8.863845472337719 3.6254517097102474 -30 0 0 0
3892 17 4 0 11.149021735597035 0.9683340760186222 -30 0 0 0
3893 18 4 0 9.994068103020808 1.6302463211179592 -30 0 0 0
3894 19 4 0 10.011170474400599 2.9593514563283034 -30 0 0 0
3895 20 4 0 11.164194689246646 3.6273950157756394 -30 0 0 0
3897 22 4 0 12.303065320243062 1.6349369087437635 -30 0 0 0
3898 23 4 0 12.311500995259664 2.9637686370100473 -30 0 0 0
3944 69 4 0 8.88240830656051 4.955402903085513 -30 0 0 0
3945 70 4 0 7.742944217501753 5.630572875237513 -30 0 0 0
3948 73 4 0 11.179420218750025 4.957012876224524 -30 0 0 0
3949 74 4 0 10.033470604087109 5.624311836559218 -30 0 0 0
3953 78 4 0 12.329308205045335 5.628251135799175 -30 0 0 0
3896 21 4 0 13.453908550406076 0.9687367294635234 -30 0 0 0
3899 24 4 0 13.462094771143196 3.6331434897445023 -30 0 0 0
3900 25 4 0 15.750220958619522 0.9704545648440833 -30 0 0 0
3901 26 4 0 14.603107861988907 1.6383285377071215 -30 0 0 0
3902 27 4 0 14.608898201247381 2.9687551147876725 -30 0 0 0
3903 28 4 0 15.755467023981033 3.638357076640108 -30 0 0 0
3904 29 4 0 18.038035231560087 0.9691033754221994 -30 0 0 0
3905 30 4 0 16.89535151412023 1.6414349617990467 -30 0 0 0
3906 31 4 0 16.899324380589004 2.971652688724536 -30 0 0 0
3907 32 4 0 18.043162839991375 3.6425763926274533 -30 0 0 0
3909 34 4 0 19.180617008873877 1.6434254372927128 -30 0 0 0
3910 35 4 0 19.184388315255607 2.9724614643351197 -30 0 0 0
3952 77 4 0 13.472495908552668 4.964095774344279 -30 0 0 0
3956 81 4 0 15.764480883484516 4.968798363909133 -30 0 0 0
3957 82 4 0 14.620114839799474 5.6346524932894875 -30 0 0 0
3960 85 4 0 18.052531469026405 4.972622168836632 -30 0 0 0
3961 86 4 0 16.91012917608964 5.639577580573708 -30 0 0 0
3965 90 4 0 19.195820550178446 5.643124573838134 -30 0 0 0
3908 33 4 0 20.321308247168677 0.969737914718896 -30 0 0 0
3911 36 4 0 20.326699749597953 3.6429062432779316 -30 0 0 0
3912 37 4 0 22.605070411191114 0.9660330895083353 -30 0 0 0
3913 38 4 0 21.46338955514676 1.6404287639328574 -30 0 0 0
3914 39 4 0 21.464215497236957 2.9693214293788786 -30 0 0 0
3915 40 4 0 22.609139108236967 3.6333893827851953 -30 0 0 0
3916 41 4 0 24.893489680847644 0.9587408910937271 -30 0 0 0
3917 42 4 0 23.75093728780072 1.6303953662404707 -30 0 0 0
3918 43 4 0 23.741756606435818 2.9551164798850094 -30 0 0 0
3919 44 4 0 24.881516936004214 3.6108921011918187 -30 0 0 0
3964 89 4 0 20.33609817619413 4.9715622352192375 -30 0 0 0
3968 93 4 0 22.617372898480124 4.962791966463775 -30 0 0 0
3969 94 4 0 21.48245750742635 5.638988409912469 -30 0 0 0
3972 97 4 0 24.896546134097292 4.939062780678956 -30 0 0 0
3973 98 4 0 23.767349870521816 5.622426120261299 -30 0 0 0
3921 46 4 0 26.046643655842313 1.601312855824742 -30 0 0 0
3922 47 4 0 26.008122263980148 2.922180305469773 -30 0 0 0
3977 102 4 0 26.046977669890282 5.5861796832133015 -30 0 0 0
3928 53 4 0 31.526931309722737 1.0169039077054753 -30 0 0 0
3931 56 4 0 31.36040684073859 4.856514757805093 -30 0 0 0
3984 109 4 0 31.921300208709425 3.8052072707828932 -30 0 0 0
3920 45 4 0 27.21079424847164 0.9436613729197714 -30 0 0 0
3923 48 4 0 27.138164605643762 3.565925059950918 -30 0 0 0
3924 49 4 0 29.62907724746509 1.1339570798003704 -30 0 0 0
3925 50 4 0 28.36864747582916 1.5913015270700186 -30 0 0 0
3926 51 4 0 28.255894449198546 2.880495309250352 -30 0 0 0
3927 52 4 0 29.323976082959224 3.5941292436992427 -30 0 0 0
3929 54 4 0 30.667283320212427 2.052409722127626 -30 0 0 0
3930 55 4 0 30.60365024792783 3.50953804643584 -30 0 0 0
3976 101 4 0 27.16589826219981 4.891640981528818 -30 0 0 0
3980 105 4 0 29.412383732051204 4.78496070278755 -30 0 0 0
3981 106 4 0 28.328463425051773 5.524087588169483 -30 0 0 0
3985 110 4 0 30.764103105137863 4.886118539055646 -30 0 0 0
3986 111 4 0 30.715855338239127 6.381646902785789 -30 0 0 0
3938 63 4 0 3.208009498358016 7.021236011752968 -30 0 0 0
3942 67 4 0 5.48548519885697 6.982327070629829 -30 0 0 0
3934 59 4 0 0.9625193651529501 7.064713527120376 -30 0 0 0
3935 60 4 0 2.0963778874529075 7.707730285700552 -30 0 0 0
3939 64 4 0 4.356975842366232 7.66762226692586 -30 0 0 0
3988 113 4 0 2.076011705770652 9.029124592900502 -30 0 0 0
3991 116 4 0 2.1276347139352962 11.676909239648172 -30 0 0 0
3992 117 4 0 4.367567197428358 8.994708331830786 -30 0 0 0
3993 118 4 0 3.2319085938250534 9.67758040878909 -30 0 0 0
3994 119 4 0 3.2554710097337063 10.999767251783073 -30 0 0 0
3995 120 4 0 4.395197298301652 11.658921139877076 -30 0 0 0
3997 122 4 0 5.515892202905029 9.652643367371356 -30 0 0 0
3998 123 4 0 5.529944216074061 10.981720891552433 -30 0 0 0
4044 169 4 0 2.113501832365213 12.99853692700398 -30 0 0 0
4048 173 4 0 4.395240732809051 12.985687959619188 -30 0 0 0
3989 114 4 0 0.9157523283508854 9.687162204808034 -30 0 0 0
3990 115 4 0 0.9882664163343855 11.030322365155554 -30 0 0 0
3946 71 4 0 7.768076401097535 6.959499833566645 -30 0 0 0
3950 75 4 0 10.055126585802741 6.955582086083513 -30 0 0 0
3954 79 4 0 12.341427093859052 6.959637279285972 -30 0 0 0
3943 68 4 0 6.6370998229309635 7.6424595608142605 -30 0 0 0
3996 121 4 0 6.651010939328682 8.972487914195495 -30 0 0 0
3999 124 4 0 6.671232043433309 11.64735569684647 -30 0 0 0
4052 177 4 0 6.673463541575038 12.974445533312338 -30 0 0 0
3947 72 4 0 8.913759757586135 7.627782806429842 -30 0 0 0
3951 76 4 0 11.201862203471716 7.628334471405859 -30 0 0 0
4000 125 4 0 8.93027460558915 8.961024253224902 -30 0 0 0
4001 126 4 0 7.793202199620703 9.63724902400216 -30 0 0 0
4002 127 4 0 7.804848202324371 10.966393524811934 -30 0 0 0
4003 128 4 0 8.948143222888891 11.637856402583001 -30 0 0 0
4004 129 4 0 11.213271370196164 8.958821548802568 -30 0 0 0
4005 130 4 0 10.077085124184695 9.632418380433608 -30 0 0 0
4006 131 4 0 10.085119866858756 10.963601983754078 -30 0 0 0
4007 132 4 0 11.225988722954067 11.633372967947114 -30 0 0 0
4009 134 4 0 12.356274597584454 9.630820726175875 -30 0 0 0
4010 135 4 0 12.366462177299713 10.964105959562971 -30 0 0 0
4056 181 4 0 8.952522252017994 12.969351650135934 -30 0 0 0
4060 185 4 0 11.231436553493689 12.965641830328211 -30 0 0 0
3958 83 4 0 14.630213571073732 6.965180058378466 -30 0 0 0
3962 87 4 0 16.92194737807093 6.970166761180927 -30 0 0 0
3966 91 4 0 19.209280723465564 6.97262204035692 -30 0 0 0
3955 80 4 0 13.488142814742694 7.631095859912376 -30 0 0 0
3959 84 4 0 15.77703341950305 7.637382284346092 -30 0 0 0
3963 88 4 0 18.067016625856454 7.6399627364935725 -30 0 0 0
4008 133 4 0 13.498464779612364 8.963519743799763 -30 0 0 0
4011 136 4 0 13.510231992242216 11.636551093953464 -30 0 0 0
4012 137 4 0 15.787214781773072 8.968221364845427 -30 0 0 0
4013 138 4 0 14.645160525002925 9.635938442497144 -30 0 0 0
4014 139 4 0 14.650825033461993 10.967338424167732 -30 0 0 0
4015 140 4 0 15.796311809267236 11.638340342177564 -30 0 0 0
4016 141 4 0 18.077757576253934 8.971023489721764 -30 0 0 0
4017 142 4 0 16.93200248311129 9.639147170514557 -30 0 0 0
4018 143 4 0 16.941185816709048 10.970205643605913 -30 0 0 0
4019 144 4 0 18.08796312991666 11.640939537913228 -30 0 0 0
4021 146 4 0 19.226249271925763 9.640210746724566 -30 0 0 0
4022 147 4 0 19.233456140286922 10.970900625042486 -30 0 0 0
4064 189 4 0 13.515345724982254 12.96757311607338 -30 0 0 0
4068 193 4 0 15.801040387018713 12.971271543966095 -30 0 0 0
4072 197 4 0 18.092206350611523 12.972059874335942 -30 0 0 0
3970 95 4 0 21.497954105418128 6.967307048518988 -30 0 0 0
3974 99 4 0 23.786312299965584 6.951291266844632 -30 0 0 0
3978 103 4 0 26.081123776387198 6.911723842227198 -30 0 0 0
3967 92 4 0 20.356371814731922 7.640903079802499 -30 0 0 0
3971 96 4 0 22.64960988631039 7.630297350646448 -30 0 0 0
3975 100 4 0 24.94631753264644 7.601234750617355 -30 0 0 0
4020 145 4 0 20.368981047068555 8.969971100024516 -30 0 0 0
4023 148 4 0 20.382183232731794 11.636717735126192 -30 0 0 0
4024 149 4 0 22.663471387172404 8.959585310240149 -30 0 0 0
4025 150 4 0 21.518548931372685 9.634242270807858 -30 0 0 0
4026 151 4 0 21.527774219013473 10.965643294834123 -30 0 0 0
4027 152 4 0 22.6783963991067 11.627094231006193 -30 0 0 0
4028 153 4 0 24.96015155318656 8.931101423879932 -30 0 0 0
4029 154 4 0 23.818860225143933 9.614732725170777 -30 0 0 0
4030 155 4 0 23.822822697091592 10.94700232652652 -30 0 0 0
4031 156 4 0 24.977702243502726 11.599319422756663 -30 0 0 0
4076 201 4 0 20.387003000263302 12.96889331613388 -30 0 0 0
4080 205 4 0 22.68127460072618 12.960568824822932 -30 0 0 0
4084 209 4 0 24.973595423538146 12.937128757012658 -30 0 0 0
4033 158 4 0 26.12585088001162 9.566076832182937 -30 0 0 0
4034 159 4 0 26.11792395705836 10.9016036972615 -30 0 0 0
3982 107 4 0 28.380192675484917 6.81429427340934 -30 0 0 0
3987 112 4 0 31.70985413784597 7.2928606821874835 -30 0 0 0
4040 165 4 0 31.776606643605692 8.659604049196703 -30 0 0 0
4043 168 4 0 31.73827268195606 11.495327583007473 -30 0 0 0
4096 221 4 0 31.76271422872518 12.853358188548679 -30 0 0 0
3979 104 4 0 27.254782169629042 7.534716216016809 -30 0 0 0
3983 108 4 0 29.61146885375493 7.2769016005138365 -30 0 0 0
4032 157 4 0 27.263270248180408 8.85924080241225 -30 0 0 0
4035 160 4 0 27.273742379423897 11.542878754486091 -30 0 0 0
4036 161 4 0 29.57474828247719 8.674975264426807 -30 0 0 0
4037 162 4 0 28.444318691799158 9.447472692816117 -30 0 0 0
4038 163 4 0 28.40598252010475 10.811603146381678 -30 0 0 0
4039 164 4 0 29.52851141383412 11.499874946989747 -30 0 0 0
4041 166 4 0 30.678066054429248 9.402815833237508 -30 0 0 0
4042 167 4 0 30.64185624421582 10.76785481268584 -30 0 0 0
4088 213 4 0 27.257219240746778 12.894750091430762 -30 0 0 0
4092 217 4 0 29.518505090087707 12.863004543936986 -30 0 0 0
4047 172 4 0 2.120345648049745 15.64614014134655 -30 0 0 0
4049 174 4 0 3.256851087832056 13.659024416543255 -30 0 0 0
4050 175 4 0 3.2589041550889872 14.980914165725268 -30 0 0 0
4051 176 4 0 4.399567948897834 15.64417176179806 -30 0 0 0
4053 178 4 0 5.538056620438445 13.648501272469096 -30 0 0 0
4054 179 4 0 5.539089662763376 14.97615025406205 -30 0 0 0
4100 225 4 0 2.1203465718889056 16.967857114172993 -30 0 0 0
4104 229 4 0 4.399568819542336 16.969823738182736 -30 0 0 0
4105 230 4 0 3.258905617477497 17.633082219565036 -30 0 0 0
4106 231 4 0 3.2568538087397694 18.954972489650057 -30 0 0 0
4109 234 4 0 5.53909130005404 17.63784379911 -30 0 0 0
4110 235 4 0 5.538060513430435 18.96549310050666 -30 0 0 0
4045 170 4 0 0.9598473142882284 13.651138438831323 -30 0 0 0
4046 171 4 0 0.9750101231832845 14.993150373350595 -30 0 0 0
4101 226 4 0 0.9750119252264351 17.62084799879685 -30 0 0 0
4102 227 4 0 0.9598503680351902 18.962860255054643 -30 0 0 0
4055 180 4 0 6.6774682221684865 15.643807928872308 -30 0 0 0
4108 233 4 0 6.677469166675444 16.970185284764344 -30 0 0 0
4057 182 4 0 7.814322409935827 13.6400833587072 -30 0 0 0
4058 183 4 0 7.815649872564399 14.972214502717497 -30 0 0 0
4059 184 4 0 8.956247963928657 15.642285529257112 -30 0 0 0
4061 186 4 0 10.092106202748312 13.639268794012422 -30 0 0 0
4062 187 4 0 10.093190124206618 14.969700456016023 -30 0 0 0
4063 188 4 0 11.235153706861407 15.639878620451787 -30 0 0 0
4065 190 4 0 12.37383742381628 13.639172576435671 -30 0 0 0
4066 191 4 0 12.376972000078002 14.96964645381595 -30 0 0 0
4112 237 4 0 8.956249265672842 16.971706837760454 -30 0 0 0
4113 238 4 0 7.815651621634274 17.641777655698455 -30 0 0 0
4114 239 4 0 7.81432721585425 18.973908922547885 -30 0 0 0
4116 241 4 0 11.235155220225787 16.974114024410078 -30 0 0 0
4117 242 4 0 10.093192167164474 17.644291721518915 -30 0 0 0
4118 243 4 0 10.09211156605893 18.974723249318263 -30 0 0 0
4121 246 4 0 12.37697401213709 17.644347046943082 -30 0 0 0
4122 247 4 0 12.373843015692282 18.974820678743505 -30 0 0 0
4067 192 4 0 13.517333505970424 15.641217462613865 -30 0 0 0
4069 194 4 0 14.657501948036812 13.639179775949769 -30 0 0 0
4070 195 4 0 14.661340271796837 14.970613006835189 -30 0 0 0
4071 196 4 0 15.805282995949854 15.642178829518013 -30 0 0 0
4073 198 4 0 16.94784177577201 13.640891741683662 -30 0 0 0
4074 199 4 0 16.948691820589712 14.972360004375792 -30 0 0 0
4075 200 4 0 18.095180528680068 15.64097327292128 -30 0 0 0
4077 202 4 0 19.23925437077131 13.640392759803257 -30 0 0 0
4078 203 4 0 19.24135762580129 14.972121659664205 -30 0 0 0
4120 245 4 0 13.517335142079563 16.972777284791075 -30 0 0 0
4124 249 4 0 15.805284614690766 16.971818671397756 -30 0 0 0
4125 250 4 0 14.661342459770012 17.643383217140638 -30 0 0 0
4126 251 4 0 14.657507814478114 18.974816113310037 -30 0 0 0
4128 253 4 0 18.09518258793467 16.973027923920426 -30 0 0 0
4129 254 4 0 16.9486938831079 17.6416390589309 -30 0 0 0
4130 255 4 0 16.94784796335432 18.973107885617946 -30 0 0 0
4133 258 4 0 19.241359362206346 17.641881299286485 -30 0 0 0
4134 259 4 0 19.239260137518777 18.973610342518693 -30 0 0 0
4079 204 4 0 20.389370660173583 15.640057616320167 -30 0 0 0
4081 206 4 0 21.535850157569524 13.636482176598774 -30 0 0 0
4082 207 4 0 21.53669441030489 14.968505142482252 -30 0 0 0
4083 208 4 0 22.684208963064993 15.639054268316878 -30 0 0 0
4085 210 4 0 23.83209611594721 13.62359939605484 -30 0 0 0
4086 211 4 0 23.830680173174475 14.961592596834123 -30 0 0 0
4087 212 4 0 24.974734372399197 15.636853549626622 -30 0 0 0
4132 257 4 0 20.389372407385526 16.9739465929251 -30 0 0 0
4136 261 4 0 22.684210004949325 16.97495231078196 -30 0 0 0
4137 262 4 0 21.53669606255675 17.645500872644917 -30 0 0 0
4138 263 4 0 21.535854978389505 18.977523528744985 -30 0 0 0
4140 265 4 0 24.974734908374803 16.977153862738785 -30 0 0 0
4141 266 4 0 23.830681838981334 17.652414842241893 -30 0 0 0
4142 267 4 0 23.832099756836257 18.990407611120474 -30 0 0 0
4089 214 4 0 26.121092197112983 13.598316034420552 -30 0 0 0
4090 215 4 0 26.113834562463882 14.946877913185862 -30 0 0 0
4145 270 4 0 26.113835978679283 17.66712979979891 -30 0 0 0
4146 271 4 0 26.121094850022345 19.015690871568868 -30 0 0 0
4099 224 4 0 31.746927481305388 15.629623742012289 -30 0 0 0
4152 277 4 0 31.74692702185168 16.984382174300574 -30 0 0 0
4091 216 4 0 27.250307037793544 15.632292193746638 -30 0 0 0
4093 218 4 0 28.39030509730953 13.575757619463484 -30 0 0 0
4094 219 4 0 28.379840542246388 14.931683878441927 -30 0 0 0
4095 220 4 0 29.507520734865015 15.628143161200253 -30 0 0 0
4097 222 4 0 30.643317601182986 13.568075704066816 -30 0 0 0
4098 223 4 0 30.631861020345262 14.92135629693456 -30 0 0 0
4144 269 4 0 27.25030714720553 16.98171482107873 -30 0 0 0
4148 273 4 0 29.507520457033902 16.985862311534973 -30 0 0 0
4149 274 4 0 28.37984168829855 17.682322758002773 -30 0 0 0
4150 275 4 0 28.390307436628095 19.03824826168401 -30 0 0 0
4153 278 4 0 30.631860897291432 17.69264914261508 -30 0 0 0
4154 279 4 0 30.643319526742534 19.04592876981951 -30 0 0 0
4103 228 4 0 2.1135052200067146 19.61546252324061 -30 0 0 0
4107 232 4 0 4.395245028369661 19.628307878912636 -30 0 0 0
4156 281 4 0 2.1276414437254103 20.93709166787772 -30 0 0 0
4159 284 4 0 2.0760346415008097 23.58487805754539 -30 0 0 0
4160 285 4 0 4.395204978445698 20.95507481646243 -30 0 0 0
4161 286 4 0 3.2554806622606423 21.614230669851754 -30 0 0 0
4162 287 4 0 3.2319283257187084 22.93641721520367 -30 0 0 0
4163 288 4 0 4.367588580581604 23.61928769098609 -30 0 0 0
4165 290 4 0 5.529955675990918 21.632271241585943 -30 0 0 0
4166 291 4 0 5.515911706070704 22.961349396945764 -30 0 0 0
4212 337 4 0 2.096408026243182 24.90627182313862 -30 0 0 0
4216 341 4 0 4.357006346775521 24.946373476236403 -30 0 0 0
4157 282 4 0 0.9882760454124796 21.583684489032716 -30 0 0 0
4158 283 4 0 0.9157732513271019 22.926844699404295 -30 0 0 0
4217 342 4 0 3.2080421782606443 25.59276474195912 -30 0 0 0
4221 346 4 0 5.485519395204303 25.63166628486991 -30 0 0 0
4213 338 4 0 0.962551211591572 25.549293893498266 -30 0 0 0
4111 236 4 0 6.67346930563981 19.63954741964873 -30 0 0 0
4164 289 4 0 6.671241856387285 20.96663643314187 -30 0 0 0
4167 292 4 0 6.651032176366977 23.64150406666682 -30 0 0 0
4220 345 4 0 6.637132047980529 24.97153183429441 -30 0 0 0
4115 240 4 0 8.952528410173624 19.644639726714594 -30 0 0 0
4119 244 4 0 11.231442763089602 19.648349974854654 -30 0 0 0
4168 293 4 0 8.948154227347878 20.97613488060422 -30 0 0 0
4169 294 4 0 7.804860046211491 21.64759798039048 -30 0 0 0
4170 295 4 0 7.793220324335752 22.976742762289643 -30 0 0 0
4171 296 4 0 8.93029573699567 23.65296597840308 -30 0 0 0
4172 297 4 0 11.226000244048036 20.9806187691872 -30 0 0 0
4173 298 4 0 10.0851325749232 21.650388925625474 -30 0 0 0
4174 299 4 0 10.07710427119328 22.98157221841958 -30 0 0 0
4175 300 4 0 11.213292430522014 23.655169502291276 -30 0 0 0
4177 302 4 0 12.366474662810317 21.649886702299053 -30 0 0 0
4178 303 4 0 12.35629390969417 22.983171692984406 -30 0 0 0
4224 349 4 0 8.913789674162876 24.9862078138473 -30 0 0 0
4228 353 4 0 11.20189204154324 24.985656660179103 -30 0 0 0
4225 350 4 0 7.768109739895915 25.654491698164804 -30 0 0 0
4229 354 4 0 10.055159275212027 25.6584086623377 -30 0 0 0
4233 358 4 0 12.34145909001164 25.654354367224755 -30 0 0 0
4123 248 4 0 13.515352296604748 19.646421246074315 -30 0 0 0
4127 252 4 0 15.801046440640679 19.642726158667358 -30 0 0 0
4131 256 4 0 18.092212813927716 19.64194141155799 -30 0 0 0
4176 301 4 0 13.510243479501819 20.977443207984177 -30 0 0 0
4179 304 4 0 13.498485122018494 23.650473890792103 -30 0 0 0
4180 305 4 0 15.796323251023919 20.97565737317649 -30 0 0 0
4181 306 4 0 14.650837280890938 21.646657035209042 -30 0 0 0
4182 307 4 0 14.645179909571892 22.978057052822702 -30 0 0 0
4183 308 4 0 15.78723492200382 23.645776163698194 -30 0 0 0
4184 309 4 0 18.087974467055925 20.97306220521351 -30 0 0 0
4185 310 4 0 16.941197534227058 21.643794244862498 -30 0 0 0
4186 311 4 0 16.93202122266459 22.974852854232587 -30 0 0 0
4187 312 4 0 18.077777052982658 23.642978877598605 -30 0 0 0
4189 314 4 0 19.233468132036514 21.64310323681676 -30 0 0 0
4190 315 4 0 19.226267284575187 22.97379348383965 -30 0 0 0
4232 357 4 0 13.488172300979771 24.982897505143878 -30 0 0 0
4236 361 4 0 15.777062543863936 24.976615254790378 -30 0 0 0
4240 365 4 0 18.06704474229297 24.974040080877202 -30 0 0 0
4237 362 4 0 14.630244156512621 25.64881510785643 -30 0 0 0
4241 366 4 0 16.92197750083654 25.643833229143798 -30 0 0 0
4245 370 4 0 19.209310792622816 25.641384181809354 -30 0 0 0
4135 260 4 0 20.387008931643564 19.64511163932232 -30 0 0 0
4139 264 4 0 22.681279818250825 19.653439271201847 -30 0 0 0
4143 268 4 0 24.973600125791265 19.67688012894772 -30 0 0 0
4188 313 4 0 20.382193451897933 20.977287490205484 -30 0 0 0
4191 316 4 0 20.369000622918247 23.644036543685317 -30 0 0 0
4192 317 4 0 22.67840502302474 20.9869128463225 -30 0 0 0
4193 318 4 0 21.527785663941383 21.64836459580218 -30 0 0 0
4194 319 4 0 21.51856546603404 22.97976503874807 -30 0 0 0
4195 320 4 0 22.66348911339481 23.654424590342984 -30 0 0 0
4196 321 4 0 24.97771003305254 21.014688247220207 -30 0 0 0
4197 322 4 0 23.822832451236646 21.667007152974396 -30 0 0 0
4198 323 4 0 23.818876020964378 22.999276616374193 -30 0 0 0
4199 324 4 0 24.960168523923457 23.68290829661075 -30 0 0 0
4244 369 4 0 20.356399299716585 24.973104154982252 -30 0 0 0
4248 373 4 0 22.64963626711584 24.98371227276383 -30 0 0 0
4252 377 4 0 24.94634422664901 25.012775673985768 -30 0 0 0
4201 326 4 0 26.11793242752466 21.712404430572096 -30 0 0 0
4202 327 4 0 26.12586659911999 23.04793161591705 -30 0 0 0
4249 374 4 0 21.497983156199094 25.646703651721978 -30 0 0 0
4253 378 4 0 23.786341216702528 25.66272000618999 -30 0 0 0
4257 382 4 0 26.081150638251934 25.702282312274974 -30 0 0 0
4155 280 4 0 31.762718507339397 19.76064261464603 -30 0 0 0
4208 333 4 0 31.738282813715603 21.11867273299666 -30 0 0 0
4211 336 4 0 31.776625075551614 23.954386471298754 -30 0 0 0
4264 389 4 0 31.709887347784424 25.321130059137342 -30 0 0 0
4147 272 4 0 27.25722297710456 19.719257509364002 -30 0 0 0
4151 276 4 0 29.518508024293833 19.751000596395443 -30 0 0 0
4200 325 4 0 27.273750325120908 21.071128470980756 -30 0 0 0
4203 328 4 0 27.263286249023757 23.754764247916277 -30 0 0 0
4204 329 4 0 29.528518952719974 21.1141292496699 -30 0 0 0
4205 330 4 0 28.405991054423133 21.802402056808795 -30 0 0 0
4206 331 4 0 28.444335343876315 23.166533516796626 -30 0 0 0
4207 332 4 0 29.574765663877532 23.93902456557875 -30 0 0 0
4209 334 4 0 30.64186578504969 21.8461444230982 -30 0 0 0
4210 335 4 0 30.67808165300117 23.211183093605502 -30 0 0 0
4256 381 4 0 27.254810026172194 25.079292155093853 -30 0 0 0
4260 385 4 0 29.611499424900742 25.337100782655877 -30 0 0 0
4261 386 4 0 28.38022080820528 25.799705295089943 -30 0 0 0
4215 340 4 0 1.9309232921205526 27.534726428385426 -30 0 0 0
4218 343 4 0 3.130412716000392 26.910189700284935 -30 0 0 0
4219 344 4 0 4.28224782871644 27.601939455285578 -30 0 0 0
4222 347 4 0 5.446167696009712 26.960463604641426 -30 0 0 0
4268 393 4 0 2.072908407863304 28.835435992588064 -30 0 0 0
4271 396 4 0 1.7531588290644746 31.63394404483864 -30 0 0 0
4272 397 4 0 4.308172836828807 28.927815773574572 -30 0 0 0
4273 398 4 0 3.166154221769119 29.560332555625976 -30 0 0 0
4274 399 4 0 2.9825250674309194 30.938459897695928 -30 0 0 0
4275 400 4 0 4.142887172287424 31.62785591257973 -30 0 0 0
4277 402 4 0 5.412697627838404 29.64377488007186 -30 0 0 0
4278 403 4 0 5.3380175687601685 30.979845091411914 -30 0 0 0
4214 339 4 0 0.7634647021079289 26.89247227043576 -30 0 0 0
4269 394 4 0 1.5691055372083542 29.985330559165064 -30 0 0 0
4270 395 4 0 0.6550656188479869 30.830405657125496 -30 0 0 0
4223 348 4 0 6.58567094930046 27.646828980009662 -30 0 0 0
4276 401 4 0 6.567715884516113 28.98391720462027 -30 0 0 0
4279 404 4 0 6.502003895270171 31.64467026742178 -30 0 0 0
4226 351 4 0 7.742990138909473 26.98341843252886 -30 0 0 0
4227 352 4 0 8.882456764760471 27.65858724354695 -30 0 0 0
4230 355 4 0 10.03351458031097 26.989678525816473 -30 0 0 0
4231 356 4 0 11.17946663265844 27.656978571043137 -30 0 0 0
4234 359 4 0 12.329351594066386 26.985740834420167 -30 0 0 0
4280 405 4 0 8.8639104970985 28.98853860965071 -30 0 0 0
4281 406 4 0 7.708311698652656 29.654946974532486 -30 0 0 0
4282 407 4 0 7.673041419942686 30.98628627139635 -30 0 0 0
4283 408 4 0 8.83287909858838 31.646403440030387 -30 0 0 0
4284 409 4 0 11.164256827612503 28.98659594804839 -30 0 0 0
4285 410 4 0 10.011238692435414 29.654639485399485 -30 0 0 0
4286 411 4 0 9.994157892330715 30.983744815717426 -30 0 0 0
4287 412 4 0 11.149114132642248 31.645658591294406 -30 0 0 0
4289 414 4 0 12.311565894577136 29.65022347094394 -30 0 0 0
4290 415 4 0 12.303150875762434 30.979054923733234 -30 0 0 0
4235 360 4 0 13.472542084845006 27.64989714060644 -30 0 0 0
4238 363 4 0 14.620157740240156 26.97934240208439 -30 0 0 0
4239 364 4 0 15.764524680150506 27.64519916763336 -30 0 0 0
4242 367 4 0 16.910170876102605 26.974422808587335 -30 0 0 0
4243 368 4 0 18.052575481979076 27.641381351750272 -30 0 0 0
4246 371 4 0 19.19586144174353 26.97088156719259 -30 0 0 0
4288 413 4 0 13.462155034442768 28.98084943409683 -30 0 0 0
4291 416 4 0 13.453995746924182 31.645257614947308 -30 0 0 0
4292 417 4 0 15.755526440881372 28.97564045569693 -30 0 0 0
4293 418 4 0 14.608960986130283 29.645239859336414 -30 0 0 0
4294 419 4 0 14.603189525727421 30.975666444886926 -30 0 0 0
4295 420 4 0 15.750303664698645 31.64354367311145 -30 0 0 0
4296 421 4 0 18.043220836458037 28.971427318907907 -30 0 0 0
4297 422 4 0 16.899385714409842 29.642347957875334 -30 0 0 0
4298 423 4 0 16.895430792146772 30.9725655986594 -30 0 0 0
4299 424 4 0 18.03811691012372 31.644900550804962 -30 0 0 0
4301 426 4 0 19.184449834959874 29.64154582020908 -30 0 0 0
4302 427 4 0 19.180696747646998 30.970582097029975 -30 0 0 0
4247 372 4 0 20.336141437702977 27.642447775428995 -30 0 0 0
4250 375 4 0 21.482497909330398 26.97502164860832 -30 0 0 0
4251 376 4 0 22.61741717961913 27.651220623814158 -30 0 0 0
4254 379 4 0 23.76739035386534 26.99158624313703 -30 0 0 0
4255 380 4 0 24.896588402040358 27.674947054615384 -30 0 0 0
4300 425 4 0 20.326758457351794 28.971103452559298 -30 0 0 0
4303 428 4 0 20.321392433862155 31.644271711041505 -30 0 0 0
4304 429 4 0 22.609198107955304 28.98062389007357 -30 0 0 0
4305 430 4 0 21.46427853326422 29.644691340548313 -30 0 0 0
4306 431 4 0 21.463472703211156 30.973583826616824 -30 0 0 0
4307 432 4 0 22.605160621486977 31.647979146838118 -30 0 0 0
4308 433 4 0 24.88157728630323 29.003120671743762 -30 0 0 0
4309 434 4 0 23.74182100178614 29.658896144318526 -30 0 0 0
4310 435 4 0 23.751024429526108 30.983618347575746 -30 0 0 0
4311 436 4 0 24.893585304467056 31.655270229749895 -30 0 0 0
4258 383 4 0 26.047018446925986 27.027830535524153 -30 0 0 0
4313 438 4 0 26.008188174234807 29.69182758635884 -30 0 0 0
4314 439 4 0 26.046734616732483 31.012697193604776 -30 0 0 0
4267 392 4 0 31.92134558110992 28.80879242881493 -30 0 0 0
4320 445 4 0 31.360464202353896 27.75747590004471 -30 0 0 0
4323 448 4 0 31.52701184512272 31.597072196013034 -30 0 0 0
4259 384 4 0 27.165941422501866 27.72236104746834 -30 0 0 0
4262 387 4 0 28.328505545959537 27.089915491330096 -30 0 0 0
4263 388 4 0 29.412426736978 27.829032464152302 -30 0 0 0
4265 390 4 0 30.71589066515357 26.23234571728272 -30 0 0 0
4266 391 4 0 30.764149401719873 27.72787657885704 -30 0 0 0
4312 437 4 0 27.13822519366988 29.04808056357348 -30 0 0 0
4315 440 4 0 27.210891566555016 31.67034299861443 -30 0 0 0
4316 441 4 0 29.32403507340479 29.01986548944598 -30 0 0 0
4317 442 4 0 28.255957344738693 29.733500757742306 -30 0 0 0
4318 443 4 0 28.368731587508602 31.022694315917963 -30 0 0 0
4319 444 4 0 29.629159588619835 31.480037497025723 -30 0 0 0
4321 446 4 0 30.603710020834136 29.104453398374314 -30 0 0 0
4322 447 4 0 30.667356773181933 30.561574424706567 -30 0 0 0
3099 114 1 0 0.9607770521617869 9.49565033221295 -1.8727720860828652 0 0 0
3100 115 1 0 1.0406069867409362 10.926566081897063 -1.8683169693987713 0 0 0
2986 1 1 0 1.6709804693146748 0.5496783328109387 -1.1413634372354151 0 0 0
2989 4 1 0 1.6827134875056033 3.2058810263115674 -0.520277298965053 0 0 0
2990 5 1 0 4.1250026370360695 0.6048564181263036 -1.089736311077486 0 0 0
2991 6 1 0 2.8793224962762096 1.251742148229307 -1.3351862943151236 0 0 0
2992 7 1 0 2.8022340736026154 2.6592647334986887 -1.1853556466107336 0 0 0
2993 8 1 0 4.004217756842036 3.365046076202444 -1.0362230026221864 0 0 0
2995 10 1 0 5.303613189994678 1.3408389572262132 -1.362321129249031 0 0 0
2996 11 1 0 5.216838248689184 2.734672722750624 -1.3289769391316546 0 0 0
2997 12 1 0 6.359735570162746 3.4369624394193523 -0.9369606228684403 0 0 0
3042 57 1 0 1.6382798820068216 4.619901275478597 -0.39959928972341746 0 0 0
3046 61 1 0 4.003577571802575 4.6186730975447645 -0.38169383533690626 0 0 0
3047 62 1 0 2.8244152655393533 5.342526844127368 -0.5232738698794065 0 0 0
3050 65 1 0 6.279211609657477 4.819234691060917 -1.0061914389794022 0 0 0
3051 66 1 0 5.188021856055914 5.378096647541977 -0.3374094915856069 0 0 0
2987 2 1 0 0.8291698415568456 1.0283445259190773 -0.11531135863996407 0 0 0
2988 3 1 0 1.0145038367588475 2.3395933700522336 0.3770252255605312 0 0 0
3043 58 1 0 0.5889798921461415 5.357120851725025 0.1685863842306976 0 0 0
175 453 7 -0.834 3.4350761307327784 2.521356978644677 2.4204095195980737 1 1 0
176 453 5 0.417 2.6436645288491523 2.362994331861226 1.9058020980984707 1 1 0
339 507 5 0.417 3.6157190105139496 7.146383875924358 3.171329563039791 0 0 0
177 453 5 0.417 3.113786666352601 2.7182568173444364 3.3003159863402596 1 1 0
629 604 5 0.417 1.5265175897185577 3.8338983657149623 3.503371404992616 1 1 0
1995 1059 5 0.417 6.197117344335083 5.821084932078808 3.2373939684659483 1 0 0
525 569 5 0.417 6.78200910687484 0.8910283264826864 2.469950600892292 0 1 0
628 604 7 -0.834 0.9899321692915937 4.373216149022898 2.9224718719153917 1 1 0
630 604 5 0.417 0.2280565554241683 3.828439220097527 2.7249983890935106 1 1 0
2994 9 1 0 6.583937487490283 0.8675001789432657 -1.0229421289604543 0 0 0
2998 13 1 0 8.39843928227891 0.9078967567023438 0.7045059263468535 0 0 0
2999 14 1 0 7.279951189122283 1.4917900089538771 0.04845152974556582 0 0 0
3000 15 1 0 7.328919564450858 2.8796647767542716 -0.08486740363660512 0 0 0
3001 16 1 0 8.602003096247643 3.4271977024691607 -0.2927589774414783 0 0 0