LAMMPS (29 Aug 2024)
units                  real
atom_style	       full
bond_style	       harmonic
angle_style	       harmonic
boundary	       p p p

neighbor 2.0 bin
neigh_modify every 1 delay 0 check yes

# ============= read data and parameters files

pair_style            lj/cut 10.0
pair_modify           shift yes mix arithmetic

read_data             equilb_100ps.data
Reading data file ...
  orthogonal box = (-0.1495 -0.193001 -38.75) to (32.8505 32.806999 41.25)
  1 by 2 by 4 MPI processor grid
  reading atoms ...
  4353 atoms
  reading velocities ...
  4353 velocities
  scanning bonds ...
  2 = max bonds/atom
  scanning angles ...
  3 = max angles/atom
  scanning dihedrals ...
  8 = max dihedrals/atom
  scanning impropers ...
  2 = max impropers/atom
  orthogonal box = (-0.1495 -0.193001 -38.75) to (32.8505 32.806999 41.25)
  1 by 2 by 4 MPI processor grid
  reading bonds ...
  3924 bonds
  reading angles ...
  4653 angles
  reading dihedrals ...
  6987 dihedrals
  reading impropers ...
  1158 impropers
Finding 1-2 1-3 1-4 neighbors ...
  special bond factors lj:    0        0        0       
  special bond factors coul:  0        0        0       
     3 = max # of 1-2 neighbors
     6 = max # of 1-3 neighbors
    18 = max # of 1-4 neighbors
    18 = max # of special neighbors
  special bonds CPU = 0.001 seconds
  read_data CPU = 0.084 seconds

pair_coeff  1  1      0.0859  3.3997
pair_coeff  2  2      0.0559  2.757
pair_coeff  3  3      0.0859  3.3997
pair_coeff  4  4      0.0859  3.3997
pair_coeff  5  5      0.0000  1.0000
pair_coeff  6  6      0.1598  3.0330
pair_coeff  7  7      0.1521  3.1507

bond_coeff     1      938.0    1.42
bond_coeff     2      190.96   1.149
bond_coeff     3      938.0    1.42
bond_coeff     4      938.0    1.42
bond_coeff     5      450.0    0.9572

angle_coeff    1      126      120.0
angle_coeff    2      126      120.0
angle_coeff    3      126      120.0
angle_coeff    4      55.0     104.52
angle_coeff    5      295.4    180.0


group  water     type 5  7
2985 atoms in group water
group  memb      type 1
442 atoms in group memb
group  CG1       type 3
448 atoms in group CG1
group  CG2       type 4
448 atoms in group CG2
group  CG3       type 3 4
896 atoms in group CG3

dump dump_1 all custom 500 dump.lammpstrj id type x y z

timestep 1.0
thermo_style custom step time cpu temp pe ke etotal press vol
thermo 100

fix                    myshk1  water shake 1.0e-5 200 0 b 5 a 4
Finding SHAKE clusters ...
       0 = # of size 2 clusters
       0 = # of size 3 clusters
       0 = # of size 4 clusters
     995 = # of frozen angles
  find clusters CPU = 0.001 seconds

fix                    freeze memb setforce 0.0 0.0 0.0

fix                    pistonkeep CG3  setforce  0.0   0.0    NULL
fix                    myforce1   CG1  aveforce  NULL  NULL  -1.439     #P=250 bars
fix                    freeze1    CG2  setforce 0.0 0.0 0.0

fix                    mynvt  all nvt temp 300 300 100.0
run                    500000

CITE-CITE-CITE-CITE-CITE-CITE-CITE-CITE-CITE-CITE-CITE-CITE-CITE

Your simulation uses code contributions which should be cited:

- Type Label Framework: https://doi.org/10.1021/acs.jpcb.3c08419

@Article{Gissinger24,
 author = {Jacob R. Gissinger, Ilia Nikiforov, Yaser Afshar, Brendon Waters, Moon-ki Choi, Daniel S. Karls, Alexander Stukowski, Wonpil Im, Hendrik Heinz, Axel Kohlmeyer, and Ellad B. Tadmor},
 title = {Type Label Framework for Bonded Force Fields in LAMMPS},
 journal = {J. Phys. Chem. B},
 year =    2024,
 volume =  128,
 number =  13,
 pages =   {3282–-3297}
}

CITE-CITE-CITE-CITE-CITE-CITE-CITE-CITE-CITE-CITE-CITE-CITE-CITE

Generated 21 of 21 mixed pair_coeff terms from arithmetic mixing rule
WARNING: Dihedrals are defined but no dihedral style is set (../force.cpp:207)
WARNING: Likewise 1-4 special neighbor interactions != 1.0 (../force.cpp:209)
WARNING: Impropers are defined but no improper style is set (../force.cpp:212)
Neighbor list info ...
  update: every = 1 steps, delay = 0 steps, check = yes
  max neighbors/atom: 2000, page size: 100000
  master list distance cutoff = 12
  ghost atom cutoff = 12
  binsize = 6, bins = 6 6 14
  1 neighbor lists, perpetual/occasional/extra = 1 0 0
  (1) pair lj/cut, perpetual
      attributes: half, newton on
      pair build: half/bin/newton
      stencil: half/bin/3d
      bin: standard
Per MPI rank memory allocation (min/avg/max) = 12.35 | 12.95 | 13.88 Mbytes
   Step          Time           CPU            Temp          PotEng         KinEng         TotEng         Press          Volume    
         0   0              0              301.90366      9412.0759      3021.0229      12433.099      58644.007      87120        
       100   100            0.59258593     305.51085      9453.8366      3057.1185      12510.955      58917.322      87120        
       200   200            1.2089087      311.02331      9486.056       3112.2794      12598.335      59153.599      87120        
       300   300            1.8330716      323.81796      9520.1738      3240.3101      12760.484      59479.472      87120        
       400   400            2.4795199      331.05853      9608.3299      3312.7635      12921.093      60093.781      87120        
       500   500            3.1357367      333.54802      9702.1727      3337.6747      13039.847      60717.086      87120        
       600   600            3.8422094      338.89228      9740.9209      3391.1525      13132.073      61117.442      87120        
       700   700            4.582664       335.03213      9864.7878      3352.5255      13217.313      61816.651      87120        
       800   800            5.4031769      333.59702      9927.5937      3338.165       13265.759      62298.632      87120        
       900   900            6.2426509      333.88066      9963.5774      3341.0033      13304.581      62739.929      87120        
      1000   1000           7.1792652      331.08638      10022.376      3313.0421      13335.418      63197.209      87120        
      1100   1100           8.1331366      313.59309      10285.006      3137.9942      13423          64376.989      87120        
      1200   1200           9.0822242      311.91568      10441.512      3121.209       13562.721      65295.923      87120        
      1300   1300           10.129732      297.26881      10767.331      2974.6439      13741.974      66656.519      87120        
      1400   1400           11.245438      294.85892      11107.108      2950.5291      14057.637      68175.184      87120        
      1500   1500           12.375364      296.54633      11469.245      2967.4144      14436.66       69783.336      87120        
      1600   1600           13.535449      297.63335      11848.224      2978.2917      14826.516      71328.13       87120        
      1700   1700           14.716359      303.92438      12070.211      3041.2434      15111.454      72147.116      87120        
      1800   1800           15.864725      313.68682      12041.771      3138.932       15180.703      72060.241      87120        
      1900   1900           17.042484      309.04632      11889.655      3092.4965      14982.151      71484.51       87120        
      2000   2000           18.222131      300.8277       11620.715      3010.2562      14630.971      70266.176      87120        
      2100   2100           19.348962      297.56427      11231.716      2977.6004      14209.316      68794.744      87120        
      2200   2200           20.631337      290.32273      10886.182      2905.1374      13791.319      67264.348      87120        
      2300   2300           21.907891      292.40444      10558.497      2925.9682      13484.465      65772.582      87120        
      2400   2400           23.120699      292.86316      10380.663      2930.5585      13311.222      64935.518      87120        
      2500   2500           24.311493      294.30102      10239.636      2944.9465      13184.582      64137.889      87120        
      2600   2600           25.366689      295.71048      10080.931      2959.0504      13039.981      63305.164      87120        
      2700   2700           26.356639      294.71926      9970.5548      2949.1317      12919.687      62733.982      87120        
      2800   2800           27.357475      296.6372       9891.626       2968.3236      12859.95       62233.902      87120        
      2900   2900           28.297666      301.27459      9828.9724      3014.7281      12843.7        61933.668      87120        
      3000   3000           29.234112      298.86957      9855.7379      2990.6621      12846.4        61965.06       87120        
      3100   3100           30.129004      299.55814      9871.3446      2997.5523      12868.897      61915.468      87120        
      3200   3200           31.038447      303.20463      9861.3125      3034.0411      12895.354      61840.791      87120        
      3300   3300           31.969665      300.09914      9917.075       3002.9659      12920.041      62102.827      87120        
      3400   3400           32.870643      304.09739      9923.1742      3042.9747      12966.149      62095.477      87120        
      3500   3500           33.765692      305.13592      9968.7239      3053.3667      13022.091      62406.304      87120        
      3600   3600           34.716639      302.0563       10026.608      3022.5503      13049.158      62700.588      87120        
      3700   3700           35.673262      299.7455       10117.726      2999.4272      13117.153      63130.715      87120        
      3800   3800           36.667203      304.80172      10163.218      3050.0226      13213.241      63478.859      87120        
      3900   3900           37.631339      301.30438      10302.173      3015.0261      13317.199      64094.413      87120        
      4000   4000           38.626097      308.26295      10356.488      3084.6577      13441.145      64499.685      87120        
      4100   4100           39.586689      304.89246      10514.678      3050.9306      13565.609      65239.761      87120        
      4200   4200           40.587795      303.1041       10661.354      3033.0352      13694.389      65887.131      87120        
      4300   4300           41.728341      301.68044      10789.458      3018.7892      13808.248      66522.443      87120        
      4400   4400           43.04007       295.85147      10968.558      2960.4612      13929.02       67273.949      87120        
      4500   4500           44.34498       299.5256       11101.477      2997.2267      14098.704      67886.903      87120        
      4600   4600           45.519489      305.45947      11172.291      3056.6044      14228.895      68216.182      87120        
      4700   4700           46.693338      299.24869      11178.743      2994.4557      14173.199      68269          87120        
      4800   4800           47.848622      301.21092      11097.861      3014.091       14111.952      67967.89       87120        
      4900   4900           49.015066      300.88461      11027.87       3010.8258      14038.695      67693.373      87120        
      5000   5000           50.12952       301.45857      10933.996      3016.5691      13950.565      67297.96       87120        
      5100   5100           51.191828      297.75988      10864.602      2979.5579      13844.16       66925.741      87120        
      5200   5200           52.270841      302.12584      10710.221      3023.2461      13733.467      66284.492      87120        
      5300   5300           53.304549      296.76537      10679.598      2969.6062      13649.204      66053.9        87120        
      5400   5400           54.343847      307.83981      10496.549      3080.4235      13576.972      65302.025      87120        
      5500   5500           55.354211      300.10245      10414.715      3002.999       13417.714      64795.911      87120        
      5600   5600           56.362155      294.68471      10372.383      2948.7859      13321.169      64582.833      87120        
      5700   5700           57.392928      299.79288      10301.19       2999.9013      13301.092      64184.941      87120        
      5800   5800           58.413259      295.04689      10292.273      2952.4102      13244.683      64093.227      87120        
      5900   5900           59.407956      299.55285      10235.821      2997.4993      13233.32       63806.322      87120        
      6000   6000           60.378488      296.98415      10255.031      2971.7954      13226.826      63815.477      87120        
      6100   6100           61.362869      300.16377      10256.737      3003.6126      13260.349      63880.191      87120        
      6200   6200           62.508223      300.22219      10256.334      3004.1971      13260.531      63818.175      87120        
      6300   6300           63.644101      300.87772      10217.971      3010.7567      13228.728      63691.174      87120        
      6400   6400           64.806834      296.77425      10245.794      2969.6951      13215.489      63766.029      87120        
      6500   6500           65.928699      301.31294      10233.697      3015.1119      13248.809      63779.463      87120        
      6600   6600           66.963659      303.23653      10282.756      3034.3604      13317.116      64062.405      87120        
      6700   6700           67.96954       306.59181      10327.676      3067.9353      13395.611      64275.267      87120        
      6800   6800           68.956862      301.62889      10416.647      3018.2734      13434.92       64636.748      87120        
      6900   6900           69.950234      305.47293      10427.436      3056.7391      13484.175      64792.459      87120        
      7000   7000           70.961908      297.37672      10573.095      2975.7237      13548.819      65357.176      87120        
      7100   7100           71.961543      301.82719      10600.516      3020.2577      13620.773      65551.244      87120        
      7200   7200           72.96667       303.77794      10613.645      3039.7781      13653.423      65721.241      87120        
      7300   7300           74.002383      297.28643      10706.472      2974.8203      13681.293      65999.849      87120        
      7400   7400           75.023477      293.30186      10737.42       2934.9484      13672.368      66209.145      87120        
      7500   7500           76.080024      294.9148       10737.548      2951.0883      13688.636      66314.363      87120        
      7600   7600           77.131582      302.2332       10768.607      3024.3205      13792.927      66450.496      87120        
      7700   7700           78.214197      301.77751      10813.517      3019.7606      13833.278      66584.042      87120        
      7800   7800           79.276367      301.16164      10771.806      3013.5978      13785.404      66433.899      87120        
      7900   7900           80.309937      290.07744      10730.577      2902.6829      13633.26       66228.981      87120        
      8000   8000           81.360344      295.05455      10680.148      2952.4867      13632.635      66039.375      87120        
      8100   8100           82.37084       297.43168      10671.188      2976.2737      13647.462      65913.926      87120        
      8200   8200           83.397692      306.20202      10551.259      3064.0348      13615.294      65501.839      87120        
      8300   8300           84.409814      297.05419      10578.662      2972.4963      13551.158      65568.452      87120        
      8400   8400           85.4346        293.07556      10565.525      2932.6839      13498.209      65438.914      87120        
      8500   8500           86.450554      305.58003      10500.028      3057.8108      13557.839      65228.301      87120        
      8600   8600           87.459489      306.66513      10449.123      3068.6689      13517.792      64966.585      87120        
      8700   8700           88.462677      296.34248      10469.512      2965.3745      13434.887      64951.547      87120        
      8800   8800           89.471326      297.39131      10422.946      2975.8697      13398.815      64828.95       87120        
      8900   8900           90.454881      302.38844      10404.281      3025.8739      13430.155      64655.964      87120        
      9000   9000           91.43953       302.78661      10413.583      3029.8582      13443.441      64697.795      87120        
      9100   9100           92.396345      301.72271      10394.674      3019.2123      13413.886      64635.372      87120        
      9200   9200           93.378807      293.34206      10355.528      2935.3506      13290.878      64403.922      87120        
      9300   9300           94.358543      291.40233      10398.415      2915.9406      13314.355      64620.612      87120        
      9400   9400           95.33744       297.52059      10407.788      2977.1634      13384.951      64629.274      87120        
      9500   9500           96.31796       302.13032      10416.094      3023.291       13439.385      64694.28       87120        
      9600   9600           97.322694      302.76124      10414.202      3029.6044      13443.806      64721.617      87120        
      9700   9700           98.336314      298.74712      10419.765      2989.4367      13409.202      64754.784      87120        
      9800   9800           99.330713      293.56867      10469.248      2937.6181      13406.867      64918.547      87120        
      9900   9900           100.33256      302.02143      10506.306      3022.2014      13528.507      65192.206      87120        
     10000   10000          101.32887      310.40656      10531.414      3106.1079      13637.522      65326.839      87120        
     10100   10100          102.31431      298.69672      10603.369      2988.9324      13592.301      65531.948      87120        
     10200   10200          103.32318      302.15256      10561.755      3023.5135      13585.269      65494.33       87120        
     10300   10300          104.34278      299.96979      10617.241      3001.6715      13618.912      65666.843      87120        
     10400   10400          105.37044      306.25316      10697.98       3064.5465      13762.526      66041.573      87120        
     10500   10500          106.39467      308.44305      10729.409      3086.4598      13815.869      66153.578      87120        
     10600   10600          107.43414      308.61094      10656.452      3088.1399      13744.592      65903.029      87120        
     10700   10700          108.46542      306.9191       10579.818      3071.2103      13651.028      65632.015      87120        
     10800   10800          109.48583      294.29711      10605.247      2944.9074      13550.154      65651.74       87120        
     10900   10900          110.50257      294.15381      10584.945      2943.4734      13528.419      65488.606      87120        
     11000   11000          111.51327      303.77967      10525.266      3039.7953      13565.061      65268.277      87120        
     11100   11100          112.50117      301.2035       10514.739      3014.0167      13528.756      65218.895      87120        
     11200   11200          113.50091      300.691        10478.578      3008.8884      13487.466      65024.991      87120        
     11300   11300          114.50247      297.0026       10496.446      2971.9801      13468.426      65148.456      87120        
     11400   11400          115.48148      292.30513      10526.083      2924.9745      13451.057      65165.118      87120        
     11500   11500          116.47718      301.72307      10441.641      3019.2158      13460.857      64837.383      87120        
     11600   11600          117.45014      298.86318      10459.404      2990.5981      13450.002      64901.635      87120        
     11700   11700          118.44218      308.18013      10442.771      3083.8289      13526.6        64887.34       87120        
     11800   11800          119.41485      308.65093      10404.941      3088.54        13493.481      64670.359      87120        
     11900   11900          120.40623      295.87508      10420.216      2960.6975      13380.914      64737.637      87120        
     12000   12000          121.39619      300.77929      10418.453      3009.7718      13428.225      64744.273      87120        
     12100   12100          122.35897      298.31104      10500.759      2985.073       13485.832      65044.127      87120        
     12200   12200          123.34752      301.34085      10513.317      3015.3911      13528.708      65171.857      87120        
     12300   12300          124.32078      302.41498      10471.856      3026.1395      13497.995      64964.49       87120        
     12400   12400          125.30986      293.88853      10458.267      2940.8189      13399.086      64882.832      87120        
     12500   12500          126.30813      298.45206      10466.309      2986.4842      13452.793      65009.888      87120        
     12600   12600          127.30454      306.46941      10478.691      3066.7105      13545.402      65016.613      87120        
     12700   12700          128.29642      305.31273      10543.266      3055.1361      13598.402      65305.301      87120        
     12800   12800          129.27531      299.94575      10573.026      3001.431       13574.457      65394.255      87120        
     12900   12900          130.27525      296.36797      10559.7        2965.6296      13525.33       65314.129      87120        
     13000   13000          131.28045      300.01855      10545.711      3002.1595      13547.871      65376.459      87120        
     13100   13100          132.2691       301.21513      10614.718      3014.1331      13628.851      65604.19       87120        
     13200   13200          133.26883      304.90431      10604.083      3051.0491      13655.132      65530.046      87120        
     13300   13300          134.26794      303.6204       10535.018      3038.2016      13573.219      65369.158      87120        
     13400   13400          135.26698      300.91821      10524.311      3011.162       13535.473      65307.92       87120        
     13500   13500          136.28116      297.26365      10580.381      2974.5923      13554.973      65456.867      87120        
     13600   13600          137.2782       297.27956      10618.507      2974.7515      13593.258      65640.15       87120        
     13700   13700          138.28296      297.62235      10605.714      2978.1816      13583.896      65574.478      87120        
     13800   13800          139.29349      297.88265      10590.663      2980.7863      13571.449      65521.832      87120        
     13900   13900          140.30912      300.05462      10569.355      3002.5203      13571.875      65463.871      87120        
     14000   14000          141.3214       299.67439      10575.536      2998.7155      13574.251      65465.288      87120        
     14100   14100          142.31255      299.25999      10588.148      2994.5688      13582.717      65471.299      87120        
     14200   14200          143.31636      307.76053      10486.339      3079.6302      13565.969      65206.023      87120        
     14300   14300          144.31992      291.45386      10546.851      2916.4562      13463.307      65317.905      87120        
     14400   14400          145.31908      294.64065      10524.198      2948.3451      13472.543      65216.809      87120        
     14500   14500          146.31961      306.12121      10505.342      3063.2262      13568.568      65207.912      87120        
     14600   14600          147.31234      303.61818      10527.723      3038.1794      13565.902      65238.857      87120        
     14700   14700          148.32001      299.91116      10496.913      3001.0849      13497.998      65119.722      87120        
     14800   14800          149.29784      296.17533      10486.283      2963.7019      13449.985      65051.58       87120        
     14900   14900          150.29638      300.17713      10466          3003.7462      13469.746      65048.795      87120        
     15000   15000          151.28989      303.14689      10466.646      3033.4634      13500.11       64993.785      87120        
     15100   15100          152.27585      298.65817      10479.604      2988.5467      13468.151      65031.794      87120        
     15200   15200          153.26497      292.84615      10434.177      2930.3882      13364.565      64900.958      87120        
     15300   15300          154.23186      297.32845      10454.515      2975.2407      13429.756      64971.774      87120        
     15400   15400          155.21393      296.31872      10560.094      2965.1368      13525.231      65357.674      87120        
     15500   15500          156.20124      306.56332      10479.234      3067.6502      13546.884      65078.608      87120        
     15600   15600          157.19626      298.55661      10484.579      2987.5304      13472.11       65058.394      87120        
     15700   15700          158.18968      302.28372      10435.413      3024.826       13460.239      64900.611      87120        
     15800   15800          159.17971      301.97858      10504.558      3021.7726      13526.33       65165.067      87120        
     15900   15900          160.18204      308.3648       10558.041      3085.6769      13643.718      65336.746      87120        
     16000   16000          161.18056      309.01223      10510.886      3092.1554      13603.041      65205.388      87120        
     16100   16100          162.16296      304.21241      10503.792      3044.1256      13547.918      65207.481      87120        
     16200   16200          163.14883      295.14101      10537.787      2953.3519      13491.139      65230.803      87120        
     16300   16300          164.13807      300.70992      10477.117      3009.0777      13486.195      65101.684      87120        
     16400   16400          165.12689      299.96703      10500.255      3001.6439      13501.899      65185.578      87120        
     16500   16500          166.11357      296.02096      10547.022      2962.1572      13509.18       65292.331      87120        
     16600   16600          167.12822      301.33637      10521.73       3015.3463      13537.077      65264.921      87120        
     16700   16700          168.14255      302.84745      10529.661      3030.467       13560.128      65288.547      87120        
     16800   16800          169.14683      300.26154      10512.231      3004.5909      13516.822      65201.701      87120        
     16900   16900          170.14868      295.98861      10512.755      2961.8335      13474.588      65219.584      87120        
     17000   17000          171.15104      298.8727       10543.307      2990.6934      13534          65268.402      87120        
     17100   17100          172.16034      305.5074       10548.809      3057.0841      13605.893      65344.084      87120        
     17200   17200          173.15659      303.02609      10557.572      3032.2546      13589.827      65448.873      87120        
     17300   17300          174.13804      301.96157      10534.152      3021.6024      13555.754      65291.161      87120        
     17400   17400          175.13064      301.28314      10476.779      3014.8137      13491.593      65102.292      87120        
     17500   17500          176.13057      296.33235      10459.073      2965.2731      13424.347      65014.305      87120        
     17600   17600          177.13511      296.34601      10519.662      2965.4099      13485.072      65250.075      87120        
     17700   17700          178.15214      306.35902      10535.423      3065.6058      13601.029      65326.966      87120        
     17800   17800          179.15369      301.1534       10567.977      3013.5154      13581.492      65394.813      87120        
     17900   17900          180.16278      300.89564      10515.291      3010.9361      13526.227      65221.126      87120        
     18000   18000          181.16348      296.80112      10514.898      2969.9639      13484.862      65228.385      87120        
     18100   18100          182.15489      302.29881      10489.7        3024.9771      13514.677      65113.712      87120        
     18200   18200          183.15417      301.49973      10598.662      3016.981       13615.643      65527.8        87120        
     18300   18300          184.15138      311.38993      10526.824      3115.9481      13642.772      65314.16       87120        
     18400   18400          185.15489      298.9175       10538.717      2991.1416      13529.859      65256.48       87120        
     18500   18500          186.15884      300.31517      10510.342      3005.1276      13515.47       65172.033      87120        
     18600   18600          187.16038      300.49543      10520.959      3006.9313      13527.891      65226.109      87120        
     18700   18700          188.16356      304.1461       10488.523      3043.462       13531.985      65114.248      87120        
     18800   18800          189.16407      295.24827      10485.049      2954.4253      13439.474      65092.911      87120        
     18900   18900          190.16473      291.53016      10495.577      2917.2196      13412.796      65150.572      87120        
     19000   19000          191.19236      300.12874      10498.587      3003.262       13501.849      65161.836      87120        
     19100   19100          192.18071      306.95547      10487.258      3071.5743      13558.833      65189.984      87120        
     19200   19200          193.19912      301.82063      10500.05       3020.1921      13520.242      65182.276      87120        
     19300   19300          194.19935      301.05226      10464.67       3012.5033      13477.173      65054.504      87120        
     19400   19400          195.21027      298.62549      10457.916      2988.2196      13446.136      65024.025      87120        
     19500   19500          196.21246      306.01796      10513.322      3062.193       13575.515      65199.911      87120        
     19600   19600          197.24836      304.36162      10547.017      3045.6187      13592.636      65366.517      87120        
     19700   19700          198.25944      301.50678      10488.092      3017.0515      13505.143      65087.979      87120        
     19800   19800          199.29175      298.96733      10490.646      2991.6403      13482.286      65177.707      87120        
     19900   19900          200.30211      295.69325      10526.465      2958.878       13485.343      65231.555      87120        
     20000   20000          201.31114      300.92964      10536.929      3011.2763      13548.205      65288.335      87120        
     20100   20100          202.30855      308.31991      10513.838      3085.2276      13599.066      65255.129      87120        
     20200   20200          203.30693      297.26238      10552.246      2974.5796      13526.826      65286.46       87120        
     20300   20300          204.31626      294.51952      10503.594      2947.1329      13450.727      65156.824      87120        
     20400   20400          205.31696      296.91042      10527.79       2971.0577      13498.848      65289.403      87120        
     20500   20500          206.30555      299.23799      10550.468      2994.3487      13544.816      65342.577      87120        
     20600   20600          207.32571      297.95983      10574.863      2981.5587      13556.422      65429.888      87120        
     20700   20700          208.3063       304.41747      10531.033      3046.1775      13577.211      65276.814      87120        
     20800   20800          209.30753      300.8627       10524.743      3010.6065      13535.349      65229.695      87120        
     20900   20900          210.30533      298.25606      10470.241      2984.5229      13454.764      65077.176      87120        
     21000   21000          211.30375      299.18525      10490.382      2993.8209      13484.203      65152.49       87120        
     21100   21100          212.28218      302.49121      10535.551      3026.9023      13562.453      65298.438      87120        
     21200   21200          213.28255      301.7751       10549.289      3019.7364      13569.026      65353.798      87120        
     21300   21300          214.28317      301.15238      10559.156      3013.5052      13572.661      65393.246      87120        
     21400   21400          215.27775      304.7151       10513.548      3049.1558      13562.704      65201.999      87120        
     21500   21500          216.3006       297.33319      10536.719      2975.2882      13512.008      65331.893      87120        
     21600   21600          217.30797      288.72446      10551.633      2889.1442      13440.777      65370.088      87120        
     21700   21700          218.29255      295.89033      10571.045      2960.8501      13531.895      65457.813      87120        
     21800   21800          219.28746      308.6329       10510.321      3088.3596      13598.681      65261.691      87120        
     21900   21900          220.29396      297.39663      10562.084      2975.923       13538.007      65363.682      87120        
     22000   22000          221.30269      303.18915      10483.721      3033.8863      13517.607      65164.614      87120        
     22100   22100          222.29797      297.53504      10518.039      2977.308       13495.347      65240.916      87120        
     22200   22200          223.29025      303.63281      10491.368      3038.3258      13529.694      65176.053      87120        
     22300   22300          224.29964      303.72228      10555.074      3039.2211      13594.295      65336.769      87120        
     22400   22400          225.30788      301.49043      10568.201      3016.888       13585.089      65372.214      87120        
     22500   22500          226.29001      296.9595       10526.004      2971.5488      13497.553      65261.749      87120        
     22600   22600          227.28703      295.39569      10522.153      2955.9004      13478.053      65231.765      87120        
     22700   22700          228.26922      296.19026      10538.927      2963.8513      13502.778      65261.964      87120        
     22800   22800          229.28271      304.50461      10481.079      3047.0495      13528.129      65077.097      87120        
     22900   22900          230.28858      301.87367      10471.661      3020.7228      13492.384      65047.611      87120        
     23000   23000          231.31438      293.58895      10459.191      2937.8211      13397.012      65044.659      87120        
     23100   23100          232.31977      293.02598      10488.795      2932.1877      13420.983      65099.089      87120        
     23200   23200          233.3285       301.55213      10477.961      3017.5053      13495.467      65077.032      87120        
     23300   23300          234.34713      301.36444      10550.457      3015.6272      13566.084      65372.227      87120        
     23400   23400          235.35539      298.65411      10601.928      2988.5061      13590.434      65556.718      87120        
     23500   23500          236.37565      295.34525      10579.157      2955.3956      13534.553      65527.377      87120        
     23600   23600          237.39912      293.81553      10565.189      2940.0884      13505.277      65464.271      87120        
     23700   23700          238.42057      301.65951      10548.554      3018.5798      13567.134      65366.096      87120        
     23800   23800          239.44248      302.82087      10560.323      3030.2011      13590.524      65487.634      87120        
     23900   23900          240.47052      299.06416      10595.617      2992.6093      13588.226      65605.449      87120        
     24000   24000          241.50117      301.83573      10557.954      3020.3432      13578.297      65464.95       87120        
     24100   24100          242.5106       295.52731      10562.28       2957.2174      13519.498      65484.17       87120        
     24200   24200          243.51848      289.63108      10611.44       2898.2163      13509.657      65681.536      87120        
     24300   24300          244.53789      306.01174      10564.678      3062.1308      13626.808      65510.957      87120        
     24400   24400          245.5637       301.52838      10571.167      3017.2676      13588.434      65531.977      87120        
     24500   24500          246.59795      295.1878       10585.433      2953.8202      13539.253      65527.474      87120        
     24600   24600          247.63869      294.67216      10574.819      2948.6603      13523.479      65494.663      87120        
     24700   24700          248.68977      297.76142      10581.68       2979.5733      13561.253      65548.365      87120        
     24800   24800          249.72577      304.36062      10563.26       3045.6087      13608.869      65437.963      87120        
     24900   24900          250.75285      303.82578      10488.556      3040.2567      13528.813      65121.22       87120        
     25000   25000          251.78997      294.31139      10543.584      2945.0503      13488.634      65358.683      87120        
     25100   25100          252.79065      298.19653      10517.11       2983.9272      13501.037      65194.517      87120        
     25200   25200          253.80986      298.26801      10502.249      2984.6425      13486.892      65124.792      87120        
     25300   25300          254.82622      300.91971      10470.675      3011.177       13481.852      65009.541      87120        
     25400   25400          255.8396       298.60919      10524.844      2988.0565      13512.901      65262.27       87120        
     25500   25500          256.84792      306.36634      10526.155      3065.6791      13591.834      65233.773      87120        
     25600   25600          257.86588      306.24096      10515.472      3064.4245      13579.896      65176.175      87120        
     25700   25700          258.87292      297.77767      10499.243      2979.7358      13478.979      65120.84       87120        
     25800   25800          259.8946       300.2927       10448.679      3004.9027      13453.582      64948.416      87120        
     25900   25900          260.89518      296.64633      10501.877      2968.415       13470.292      65104.463      87120        
     26000   26000          261.88198      303.03834      10482.038      3032.3772      13514.415      65086.123      87120        
     26100   26100          262.86862      301.1851       10504.323      3013.8326      13518.155      65153.553      87120        
     26200   26200          263.8713       303.48049      10465.644      3036.8016      13502.446      64978.176      87120        
     26300   26300          264.88893      299.41506      10460.874      2996.1206      13456.995      64999.352      87120        
     26400   26400          265.90527      296.1521       10485.487      2963.4695      13448.956      65129.948      87120        
     26500   26500          266.908        299.80553      10516.334      3000.0278      13516.362      65206.206      87120        
     26600   26600          267.93436      301.76543      10577.909      3019.6397      13597.549      65454.686      87120        
     26700   26700          268.9423       303.83313      10542.425      3040.3304      13582.755      65341.944      87120        
     26800   26800          269.97312      297.48301      10557.856      2976.7873      13534.644      65353.86       87120        
     26900   26900          271.00468      300.52278      10540.995      3007.2051      13548.201      65414.397      87120        
     27000   27000          272.0247       297.66601      10595.894      2978.6185      13574.512      65534.352      87120        
     27100   27100          273.02498      300.19203      10590.13       3003.8954      13594.026      65461.888      87120        
     27200   27200          274.02555      295.08246      10613.974      2952.7661      13566.74       65557.783      87120        
     27300   27300          275.04294      294.05403      10581.619      2942.475       13524.094      65479.158      87120        
     27400   27400          276.04608      299.70794      10563.289      2999.0513      13562.34       65385.296      87120        
     27500   27500          277.03308      300.13999      10597.266      3003.3747      13600.64       65516.845      87120        
     27600   27600          278.04821      301.34093      10541.295      3015.3919      13556.687      65292.567      87120        
     27700   27700          279.06447      295.83494      10464.994      2960.2958      13425.29       65019.835      87120        
     27800   27800          280.0628       295.69586      10474.901      2958.9041      13433.805      65074.626      87120        
     27900   27900          281.05951      299.14005      10497.263      2993.3686      13490.631      65128.083      87120        
     28000   28000          282.06129      299.03936      10487.575      2992.361       13479.936      65044.351      87120        
     28100   28100          283.04096      300.55205      10457.934      3007.4979      13465.432      64997.493      87120        
     28200   28200          284.02088      306.92963      10435.134      3071.3157      13506.45       64881.911      87120        
     28300   28300          285.01891      304.21132      10478.186      3044.1147      13522.3        64954.535      87120        
     28400   28400          285.98601      293.26744      10476.874      2934.6039      13411.478      64987.154      87120        
     28500   28500          286.97395      292.94457      10466.726      2931.3731      13398.1        64938.636      87120        
     28600   28600          287.9677       298.21408      10490.888      2984.1029      13474.991      65043.085      87120        
     28700   28700          288.96848      308.83918      10409.04       3090.4237      13499.464      64782.357      87120        
     28800   28800          289.95264      301.40463      10413.124      3016.0294      13429.153      64743.104      87120        
     28900   28900          290.95369      298.1486       10433.135      2983.4476      13416.582      64846.865      87120        
     29000   29000          291.96313      302.47826      10438.901      3026.7727      13465.673      64909.189      87120        
     29100   29100          292.93953      295.61103      10559.448      2958.0552      13517.504      65420.346      87120        
     29200   29200          293.94596      302.27255      10570.017      3024.7143      13594.732      65443.211      87120        
     29300   29300          294.95265      305.45495      10622.736      3056.5592      13679.295      65697.769      87120        
     29400   29400          295.96441      302.447        10568.966      3026.4599      13595.426      65519.544      87120        
     29500   29500          296.97919      297.89689      10571.692      2980.9288      13552.621      65548.656      87120        
     29600   29600          297.98086      299.14371      10576.265      2993.4053      13569.671      65559.879      87120        
     29700   29700          298.99415      299.77421      10612.133      2999.7144      13611.848      65641.713      87120        
     29800   29800          300.01308      304.94285      10576.891      3051.4348      13628.325      65542.03       87120        
     29900   29900          301.01673      298.25071      10585.12       2984.4694      13569.589      65566.793      87120        
     30000   30000          302.03914      300.60835      10567.948      3008.0613      13576.009      65515.896      87120        
     30100   30100          303.03883      297.5225       10628.126      2977.1825      13605.308      65726.224      87120        
     30200   30200          304.05361      299.68643      10634.422      2998.836       13633.258      65756.379      87120        
     30300   30300          305.06182      304.66321      10575.766      3048.6366      13624.403      65505.52       87120        
     30400   30400          306.06956      291.37516      10564.979      2915.6686      13480.648      65454.399      87120        
     30500   30500          307.0784       293.18871      10525.912      2933.8161      13459.728      65274.868      87120        
     30600   30600          308.08719      294.1267       10559.878      2943.2022      13503.08       65338.043      87120        
     30700   30700          309.08406      297.12102      10568.27       2973.165       13541.435      65458.945      87120        
     30800   30800          310.09514      298.57448      10547.479      2987.7092      13535.188      65337.067      87120        
     30900   30900          311.09465      299.17729      10528.265      2993.7413      13522.006      65203.069      87120        
     31000   31000          312.0934       306.77236      10409.681      3069.742       13479.423      64841.562      87120        
     31100   31100          313.06621      292.07618      10456.498      2922.6835      13379.182      64933.535      87120        
     31200   31200          314.03501      301.9515       10387.041      3021.5017      13408.543      64693.361      87120        
     31300   31300          315.02254      302.09661      10437.985      3022.9537      13460.939      64857.374      87120        
     31400   31400          316.01413      297.98125      10513.884      2981.7731      13495.657      65109.434      87120        
     31500   31500          317.00913      309.95491      10439.496      3101.5884      13541.084      64890.887      87120        
     31600   31600          317.99942      301.11223      10506.968      3013.1034      13520.071      65093.979      87120        
     31700   31700          319.00854      297.19684      10454.027      2973.9238      13427.95       64888.616      87120        
     31800   31800          320.0285       293.06725      10491.49       2932.6007      13424.091      64999.401      87120        
     31900   31900          321.0336       301.23972      10504.134      3014.3792      13518.513      65151.732      87120        
     32000   32000          322.05584      306.94142      10527.545      3071.4337      13598.979      65262.283      87120        
     32100   32100          323.0434       300.20927      10512.966      3004.0679      13517.033      65223.705      87120        
     32200   32200          324.03966      293.34319      10536.089      2935.3619      13471.451      65335.997      87120        
     32300   32300          325.06521      304.04474      10522.084      3042.4478      13564.532      65272.246      87120        
     32400   32400          326.07587      302.68585      10574.122      3028.85        13602.972      65459.145      87120        
     32500   32500          327.09965      305.92363      10546.815      3061.2491      13608.064      65448.545      87120        
     32600   32600          328.10355      293.7212       10580.632      2939.1445      13519.776      65523.813      87120        
     32700   32700          329.11306      303.874        10505.352      3040.7393      13546.091      65332.788      87120        
     32800   32800          330.12926      291.62392      10663.127      2918.1579      13581.285      65772.612      87120        
     32900   32900          331.14698      306.00083      10577.626      3062.0216      13639.647      65529.525      87120        
     33000   33000          332.16539      304.15051      10559.866      3043.5062      13603.372      65456.6        87120        
     33100   33100          333.16816      295.64424      10591.466      2958.3875      13549.853      65540.519      87120        
     33200   33200          334.15737      296.05485      10559.119      2962.4964      13521.615      65419.803      87120        
     33300   33300          335.16199      299.84998      10526.254      3000.4726      13526.727      65277.037      87120        
     33400   33400          336.16922      298.6912       10564.53       2988.8772      13553.407      65422.266      87120        
     33500   33500          337.18112      314.849        10500.412      3150.5615      13650.974      65276.641      87120        
     33600   33600          338.18429      294.27089      10620.974      2944.645       13565.619      65570.114      87120        
     33700   33700          339.20666      298.98371      10529.703      2991.8042      13521.507      65275.232      87120        
     33800   33800          340.22024      295.41816      10507.89       2956.1252      13464.016      65164.791      87120        
     33900   33900          341.21548      303.29636      10420.277      3034.9591      13455.237      64856.035      87120        
     34000   34000          342.23081      298.43604      10439.886      2986.3239      13426.21       64879.555      87120        
     34100   34100          343.21327      296.10643      10437.745      2963.0125      13400.758      64875.394      87120        
     34200   34200          344.20323      295.02324      10429.11       2952.1735      13381.283      64868.612      87120        
     34300   34300          345.1996       297.50325      10460.46       2976.9899      13437.45       65011.431      87120        
     34400   34400          346.18026      306.32278      10459.005      3065.2432      13524.248      64948.181      87120        
     34500   34500          347.18998      299.38115      10498.966      2995.7812      13494.747      65121.591      87120        
     34600   34600          348.19783      299.22741      10482.403      2994.2428      13476.646      65090.764      87120        
     34700   34700          349.20165      299.61542      10484.135      2998.1255      13482.261      65056.02       87120        
     34800   34800          350.22616      302.97421      10503.105      3031.7354      13534.841      65140.72       87120        
     34900   34900          351.23383      312.42096      10482.463      3126.2651      13608.728      65156.02       87120        
     35000   35000          352.25278      298.27507      10559.818      2984.7132      13544.531      65330.993      87120        
     35100   35100          353.2496       297.70498      10522.93       2979.0085      13501.938      65286.231      87120        
     35200   35200          354.25665      293.60284      10594.001      2937.9601      13531.961      65564.344      87120        
     35300   35300          355.28832      302.40967      10598.176      3026.0863      13624.262      65571.155      87120        
     35400   35400          356.31925      303.36041      10591.361      3035.6         13626.961      65566.943      87120        
     35500   35500          357.36315      301.91962      10552.325      3021.1827      13573.507      65421.788      87120        
     35600   35600          358.37665      295.33247      10558.261      2955.2678      13513.529      65352.093      87120        
     35700   35700          359.39361      297.58538      10547.054      2977.8117      13524.866      65373.048      87120        
     35800   35800          360.42856      302.26965      10529.38       3024.6852      13554.066      65277.139      87120        
     35900   35900          361.43317      308.68422      10504.676      3088.8732      13593.549      65245.865      87120        
     36000   36000          362.44038      306.41487      10529.364      3066.1647      13595.529      65294.878      87120        
     36100   36100          363.43387      304.72475      10465.198      3049.2524      13514.451      65037.436      87120        
     36200   36200          364.45419      293.46729      10474.314      2936.6038      13410.918      65026.758      87120        
     36300   36300          365.4539       296.89082      10434.178      2970.8615      13405.039      64904.536      87120        
     36400   36400          366.4496       301.34805      10468.558      3015.4632      13484.021      65004.826      87120        
     36500   36500          367.44244      305.10985      10483.184      3053.1059      13536.29       65075.316      87120        
     36600   36600          368.44727      295.02761      10537.468      2952.2171      13489.685      65259.251      87120        
     36700   36700          369.44913      287.32662      10510.118      2875.1566      13385.275      65162.157      87120        
     36800   36800          370.46742      299.79969      10477.075      2999.9694      13477.044      65131.374      87120        
     36900   36900          371.48446      300.42974      10533.805      3006.274       13540.079      65247.82       87120        
     37000   37000          372.49372      303.52875      10508.711      3037.2845      13545.995      65153.617      87120        
     37100   37100          373.48237      300.69107      10514          3008.8891      13522.89       65228.884      87120        
     37200   37200          374.45834      295.14351      10504.47       2953.377       13457.847      65090.889      87120        
     37300   37300          375.45081      297.08268      10464.44       2972.7814      13437.222      65001.991      87120        
     37400   37400          376.43174      300.66477      10519.121      3008.6258      13527.747      65248.874      87120        
     37500   37500          377.43169      309.75408      10522.562      3099.5788      13622.141      65202.325      87120        
     37600   37600          378.43838      306.90722      10515.487      3071.0914      13586.578      65259.102      87120        
     37700   37700          379.42961      295.117        10571.969      2953.1116      13525.081      65478.557      87120        
     37800   37800          380.45318      304.53983      10478.445      3047.402       13525.847      65083.394      87120        
     37900   37900          381.47562      299.20906      10552.687      2994.0592      13546.746      65321.287      87120        
     38000   38000          382.5041       307.60555      10554.048      3078.0793      13632.128      65442.011      87120        
     38100   38100          383.51411      308.71         10558.716      3089.1311      13647.847      65389.388      87120        
     38200   38200          384.49808      296.14453      10576.129      2963.3937      13539.523      65504.374      87120        
     38300   38300          385.50267      295.14576      10564.206      2953.3995      13517.605      65418.442      87120        
     38400   38400          386.50688      302.01555      10550.72       3022.1426      13572.863      65371.564      87120        
     38500   38500          387.51967      309.67292      10503.535      3098.7666      13602.302      65252.836      87120        
     38600   38600          388.53826      291.38884      10590.875      2915.8055      13506.68       65507.961      87120        
     38700   38700          389.53506      294.91828      10504.981      2951.1232      13456.104      65203.146      87120        
     38800   38800          390.5377       297.72538      10527.861      2979.2126      13507.074      65297.289      87120        
     38900   38900          391.52385      301.44047      10514.807      3016.388       13531.195      65298.919      87120        
     39000   39000          392.52876      302.54928      10504.375      3027.4833      13531.858      65176.238      87120        
     39100   39100          393.52485      304.80717      10503.292      3050.0771      13553.369      65239.841      87120        
     39200   39200          394.55502      301.55899      10534.289      3017.574       13551.863      65341.324      87120        
     39300   39300          395.56287      296.25289      10567.645      2964.478       13532.123      65339.089      87120        
     39400   39400          396.58683      303.76338      10470.615      3039.6323      13510.247      65072.096      87120        
     39500   39500          397.60844      301.25497      10448.764      3014.5318      13463.296      64966.86       87120        
     39600   39600          398.62464      293.38894      10489.54       2935.8197      13425.36       65040.515      87120        
     39700   39700          399.62717      295.52689      10555.866      2957.2133      13513.079      65367.636      87120        
     39800   39800          400.63197      310.93048      10467.7        3111.3505      13579.051      65050.599      87120        
     39900   39900          401.63842      301.60722      10511.211      3018.0565      13529.268      65118.878      87120        
     40000   40000          402.664        296.23968      10494.281      2964.3459      13458.626      65148.169      87120        
     40100   40100          403.65696      305.09898      10419.228      3052.9972      13472.225      64910.646      87120        
     40200   40200          404.66821      300.10783      10551.405      3003.0529      13554.458      65285.735      87120        
     40300   40300          405.68366      304.07529      10574.602      3042.7535      13617.356      65383.987      87120        
     40400   40400          406.68665      305.61034      10537.42       3058.1141      13595.534      65330.611      87120        
     40500   40500          407.69747      303.21846      10509.507      3034.1796      13543.687      65121.357      87120        
     40600   40600          408.68902      296.84704      10531.441      2970.4234      13501.864      65296.55       87120        
     40700   40700          409.69095      291.38863      10575.285      2915.8034      13491.088      65387.353      87120        
     40800   40800          410.70523      307.29869      10525.942      3075.0087      13600.951      65268.657      87120        
     40900   40900          411.70367      302.17607      10595.363      3023.7488      13619.112      65524.007      87120        
     41000   41000          412.72714      303.9048       10516.192      3041.0475      13557.239      65240.342      87120        
     41100   41100          413.72453      298.97823      10516.491      2991.7493      13508.24       65158.481      87120        
     41200   41200          414.72183      299.51534      10514.05       2997.1241      13511.174      65247.32       87120        
     41300   41300          415.72791      298.33753      10546.703      2985.3381      13532.041      65296.366      87120        
     41400   41400          416.73314      312.64757      10510.337      3128.5327      13638.869      65178.096      87120        
     41500   41500          417.7243       308.0818       10481.557      3082.845       13564.402      65056.731      87120        
     41600   41600          418.71588      303.21979      10458.99       3034.1929      13493.182      64957.695      87120        
     41700   41700          419.72557      297.06832      10473.306      2972.6377      13445.944      65012.902      87120        
     41800   41800          420.73215      294.24395      10488.541      2944.3755      13432.917      65055.874      87120        
     41900   41900          421.74388      304.27891      10488.705      3044.7911      13533.496      65074.993      87120        
     42000   42000          422.76015      300.65444      10536.251      3008.5225      13544.774      65235.563      87120        
     42100   42100          423.74959      303.71574      10461.283      3039.1557      13500.439      64946.912      87120        
     42200   42200          424.74888      299.02982      10484.297      2992.2657      13476.563      65110.776      87120        
     42300   42300          425.73857      295.38269      10520.733      2955.7703      13476.503      65188.355      87120        
     42400   42400          426.74499      303.31435      10495.38       3035.1391      13530.519      65115.391      87120        
     42500   42500          427.74261      305.756        10497.733      3059.5717      13557.304      65215.585      87120        
     42600   42600          428.75986      291.34828      10521.017      2915.3997      13436.417      65214.282      87120        
     42700   42700          429.76486      294.16537      10522.285      2943.5891      13465.874      65201.126      87120        
     42800   42800          430.75265      299.02656      10589.34       2992.233       13581.573      65559.543      87120        
     42900   42900          431.76917      301.80241      10614.723      3020.0097      13634.732      65599.349      87120        
     43000   43000          432.79001      295.62992      10647.436      2958.2443      13605.68       65734.288      87120        
     43100   43100          433.80874      296.40568      10584.708      2966.0069      13550.715      65558.371      87120        
     43200   43200          434.819        294.55277      10549.695      2947.4656      13497.161      65361.856      87120        
     43300   43300          435.83133      306.22615      10532.113      3064.2762      13596.389      65381.875      87120        
     43400   43400          436.84158      303.31745      10583.141      3035.1701      13618.311      65523.146      87120        
     43500   43500          437.86033      302.54742      10557.629      3027.4648      13585.094      65390.954      87120        
     43600   43600          438.87685      299.11755      10541.847      2993.1435      13534.991      65379.999      87120        
     43700   43700          439.91162      287.2609       10620.695      2874.499       13495.194      65589.812      87120        
     43800   43800          440.93007      300.92005      10580.506      3011.1803      13591.686      65515.597      87120        
     43900   43900          441.95468      306.83261      10521.852      3070.3448      13592.197      65304.59       87120        
     44000   44000          442.97877      302.32816      10505.144      3025.2708      13530.415      65134.38       87120        
     44100   44100          443.99394      294.94994      10550.558      2951.44        13501.998      65322.28       87120        
     44200   44200          444.99675      302.02672      10580.34       3022.2543      13602.595      65415.845      87120        
     44300   44300          445.99895      302.50308      10543.021      3027.0211      13570.042      65178.242      87120        
     44400   44400          446.98804      301.80529      10484.676      3020.0386      13504.714      65138.29       87120        
     44500   44500          447.98755      295.12366      10538.645      2953.1784      13491.823      65252.196      87120        
     44600   44600          448.99215      301.04486      10510.186      3012.4293      13522.615      65098.451      87120        
     44700   44700          449.99969      300.25301      10505.103      3004.5055      13509.609      65115.31       87120        
     44800   44800          451.00822      294.60104      10467.68       2947.9487      13415.628      64919.693      87120        
     44900   44900          452.01355      291.43434      10459.666      2916.2609      13375.927      64943.639      87120        
     45000   45000          453.01289      297.02805      10484.918      2972.2348      13457.152      65040.398      87120        
     45100   45100          453.99346      299.36688      10534.855      2995.6385      13530.494      65179.288      87120        
     45200   45200          454.98951      306.70055      10482.893      3069.0234      13551.916      65069.098      87120        
     45300   45300          456.00549      300.46535      10482.611      3006.6304      13489.241      65071.404      87120        
     45400   45400          456.98966      302.21635      10448.81       3024.1519      13472.962      64962.25       87120        
     45500   45500          457.98817      302.10444      10472.964      3023.0321      13495.996      65038.088      87120        
     45600   45600          458.99541      303.27406      10472.747      3034.736       13507.483      65043.959      87120        
     45700   45700          460.00615      293.41089      10541.526      2936.0393      13477.565      65299.539      87120        
     45800   45800          461.02095      299.62655      10466.404      2998.2369      13464.641      65016.244      87120        
     45900   45900          462.03848      303.43363      10511.872      3036.3327      13548.205      65187.233      87120        
     46000   46000          463.05378      305.89804      10519.914      3060.993       13580.907      65270.769      87120        
     46100   46100          464.03201      297.81932      10555.845      2980.1527      13535.998      65373.445      87120        
     46200   46200          465.02452      296.86964      10526.556      2970.6496      13497.206      65273.933      87120        
     46300   46300          466.02404      296.13979      10562.245      2963.3463      13525.591      65357.611      87120        
     46400   46400          467.01984      306.91498      10525.274      3071.1691      13596.443      65242.713      87120        
     46500   46500          468.00866      301.42957      10532.416      3016.2789      13548.695      65248.305      87120        
     46600   46600          469.02572      297.47596      10528.584      2976.7168      13505.301      65240.773      87120        
     46700   46700          470.01098      300.47047      10526.64       3006.6816      13533.322      65194.386      87120        
     46800   46800          471.01658      302.13654      10526.593      3023.3532      13549.946      65223.985      87120        
     46900   46900          472.0314       307.32571      10495.164      3075.2791      13570.443      65163.948      87120        
     47000   47000          473.06661      297.69552      10509.486      2978.9138      13488.399      65161.956      87120        
     47100   47100          474.0626       295.68383      10488.605      2958.7837      13447.388      65061.811      87120        
     47200   47200          475.07226      299.82626      10498.128      3000.2352      13498.363      65152.85       87120        
     47300   47300          476.07269      307.79301      10494.245      3079.9552      13574.2        65152.902      87120        
     47400   47400          477.06909      297.93655      10575.596      2981.3257      13556.922      65455.202      87120        
     47500   47500          478.07391      292.41668      10534.729      2926.0907      13460.82       65251.555      87120        
     47600   47600          479.07721      289.74104      10494.162      2899.3167      13393.479      65101.87       87120        
     47700   47700          480.07878      296.9371       10528.245      2971.3247      13499.569      65236.954      87120        
     47800   47800          481.09375      305.5933       10506.884      3057.9436      13564.827      65195.442      87120        
     47900   47900          482.1097       306.9329       10493.091      3071.3484      13564.439      65164.739      87120        
     48000   48000          483.11482      297.9334       10490.272      2981.2942      13471.566      65140.018      87120        
     48100   48100          484.12243      295.5725       10471.253      2957.6697      13428.923      65072.842      87120        
     48200   48200          485.10877      297.66615      10493.394      2978.6199      13472.014      65147.423      87120        
     48300   48300          486.11734      302.30611      10532.488      3025.0501      13557.538      65275.316      87120        
     48400   48400          487.14637      301.87299      10525.459      3020.7161      13546.175      65302.983      87120        
     48500   48500          488.15963      302.16848      10495.012      3023.6729      13518.685      65186.962      87120        
     48600   48600          489.18542      299.33058      10508.433      2995.2752      13503.709      65175.854      87120        
     48700   48700          490.20103      307.96942      10535.136      3081.7204      13616.856      65337.751      87120        
     48800   48800          491.2227       303.72935      10586.746      3039.2919      13626.038      65441.502      87120        
     48900   48900          492.26861      296.59643      10577.909      2967.9157      13545.824      65406.024      87120        
     49000   49000          493.27707      297.49356      10512.986      2976.8929      13489.879      65220.759      87120        
     49100   49100          494.2816       298.28313      10515.012      2984.7938      13499.805      65220.598      87120        
     49200   49200          495.27896      299.57721      10535.361      2997.7431      13533.104      65273.523      87120        
     49300   49300          496.31104      306.50044      10532.21       3067.021       13599.232      65287.801      87120        
     49400   49400          497.33972      305.10152      10530.54       3053.0226      13583.562      65204.153      87120        
     49500   49500          498.36607      292.21648      10522.876      2924.0874      13446.963      65208.472      87120        
     49600   49600          499.3897       296.95797      10497.312      2971.5335      13468.846      65085.756      87120        
     49700   49700          500.38807      304.58345      10505.706      3047.8384      13553.544      65119.461      87120        
     49800   49800          501.41183      299.11326      10554.9        2993.1006      13548          65283.75       87120        
     49900   49900          502.44759      299.31201      10480.014      2995.0894      13475.104      65049.566      87120        
     50000   50000          503.48556      297.89265      10458.688      2980.8865      13439.574      64927.404      87120        
     50100   50100          504.5151       303.64975      10421.179      3038.4953      13459.674      64874.739      87120        
     50200   50200          505.52799      300.15466      10477.367      3003.5214      13480.889      64987.352      87120        
     50300   50300          506.53629      299.24489      10539.696      2994.4177      13534.114      65222.434      87120        
     50400   50400          507.54222      304.71397      10541.131      3049.1446      13590.276      65272.243      87120        
     50500   50500          508.54109      299.10168      10522.173      2992.9847      13515.158      65148.762      87120        
     50600   50600          509.5645       301.36028      10479.089      3015.5855      13494.674      65152.552      87120        
     50700   50700          510.56698      302.84972      10506.944      3030.4898      13537.434      65234.739      87120        
     50800   50800          511.57754      308.21564      10498.523      3084.1843      13582.707      65154.652      87120        
     50900   50900          512.57815      302.77572      10537.462      3029.7493      13567.212      65342.786      87120        
     51000   51000          513.60071      293.73595      10586.154      2939.2921      13525.446      65527.358      87120        
     51100   51100          514.59802      299.58282      10557.973      2997.7993      13555.773      65409.615      87120        
     51200   51200          515.60624      302.99834      10611.508      3031.9769      13643.485      65690.463      87120        
     51300   51300          516.59379      304.13922      10605.739      3043.3932      13649.132      65648.843      87120        
     51400   51400          517.60282      302.03456      10574.832      3022.3328      13597.165      65440.383      87120        
     51500   51500          518.61044      296.4133       10589.044      2966.0832      13555.127      65561.067      87120        
     51600   51600          519.62434      298.9722       10573.991      2991.689       13565.68       65495.12       87120        
     51700   51700          520.63331      300.03125      10591.512      3002.2865      13593.798      65489.215      87120        
     51800   51800          521.63941      304.68321      10565.899      3048.8367      13614.735      65439.686      87120        
     51900   51900          522.64606      298.60225      10533.056      2987.9871      13521.043      65285.803      87120        
     52000   52000          523.65345      290.67654      10521.688      2908.6779      13430.366      65156.582      87120        
     52100   52100          524.6374       295.10829      10494.309      2953.0245      13447.334      65137.153      87120        
     52200   52200          525.62598      308.17401      10451.123      3083.7677      13534.891      64977.838      87120        
     52300   52300          526.63039      304.43333      10474.09       3046.3362      13520.427      65027.356      87120        
     52400   52400          527.62197      299.70404      10480.835      2999.0123      13479.847      65050.582      87120        
     52500   52500          528.61908      298.0671       10454.325      2982.6321      13436.957      64952.566      87120        
     52600   52600          529.6114       299.76692      10475.916      2999.6414      13475.557      65045.477      87120        
     52700   52700          530.59221      310.87264      10481.295      3110.7717      13592.067      65080.666      87120        
     52800   52800          531.5857       308.71755      10491.659      3089.2066      13580.865      65196.642      87120        
     52900   52900          532.60207      296.52197      10554.731      2967.1706      13521.901      65318.442      87120        
     53000   53000          533.61528      297.71123      10529.865      2979.071       13508.936      65219.941      87120        
     53100   53100          534.59236      297.03796      10543.439      2972.334       13515.773      65268.645      87120        
     53200   53200          535.57689      301.27933      10506.231      3014.7755      13521.006      65154.751      87120        
     53300   53300          536.57521      301.46716      10531.538      3016.6551      13548.193      65300.788      87120        
     53400   53400          537.56746      296.96964      10581.737      2971.6502      13553.387      65506.626      87120        
     53500   53500          538.56593      297.8255       10586.976      2980.2145      13567.19       65473.055      87120        
     53600   53600          539.57026      307.34211      10527.352      3075.4432      13602.795      65242.045      87120        
     53700   53700          540.57293      303.26746      10548.856      3034.6699      13583.526      65357.655      87120        
     53800   53800          541.57297      294.45156      10537.338      2946.4529      13483.791      65319.888      87120        
     53900   53900          542.55541      294.50437      10520.677      2946.9814      13467.659      65230.705      87120        
     54000   54000          543.55701      298.11833      10528.741      2983.1447      13511.886      65243.208      87120        
     54100   54100          544.54808      302.30241      10511.007      3025.0131      13536.02       65179.195      87120        
     54200   54200          545.537        299.69237      10528.22       2998.8954      13527.115      65218.732      87120        
     54300   54300          546.52186      301.17265      10473.934      3013.708       13487.642      65037.839      87120        
     54400   54400          547.48554      291.0372       10507.371      2912.2868      13419.658      65081.196      87120        
     54500   54500          548.45006      296.6252       10446.337      2968.2036      13414.54       64810.728      87120        
     54600   54600          549.43021      297.19946      10529.906      2973.95        13503.856      65176.817      87120        
     54700   54700          550.41322      304.62651      10479.133      3048.2693      13527.403      65007.691      87120        
     54800   54800          551.39685      300.23117      10495.156      3004.287       13499.443      65042.81       87120        
     54900   54900          552.37965      293.77551      10497.56       2939.688       13437.248      65072.25       87120        
     55000   55000          553.35666      297.29795      10470.363      2974.9355      13445.299      64974.891      87120        
     55100   55100          554.34678      308.48693      10483.424      3086.8989      13570.323      65026.775      87120        
     55200   55200          555.34671      304.21014      10502.31       3044.1029      13546.413      65107.266      87120        
     55300   55300          556.33428      294.72349      10549.845      2949.174       13499.019      65282.781      87120        
     55400   55400          557.34773      296.2931       10543.704      2964.8804      13508.584      65236.035      87120        
     55500   55500          558.3477       299.83836      10608.909      3000.3564      13609.265      65535.083      87120        
     55600   55600          559.34959      305.66991      10574.828      3058.7102      13633.538      65444.453      87120        
     55700   55700          560.34599      293.5437       10573.744      2937.3684      13511.113      65367.83       87120        
     55800   55800          561.34541      303.03437      10503.018      3032.3375      13535.356      65169.817      87120        
     55900   55900          562.35045      293.38066      10633.571      2935.7368      13569.307      65631.909      87120        
     56000   56000          563.35786      303.95636      10582.366      3041.5634      13623.93       65443.666      87120        
     56100   56100          564.34757      299.23168      10576.314      2994.2855      13570.6        65457.604      87120        
     56200   56200          565.35801      296.67598      10550.175      2968.7117      13518.887      65384.71       87120        
     56300   56300          566.35764      291.94873      10615.342      2921.4081      13536.75       65592.027      87120        
     56400   56400          567.35275      305.69406      10578.24       3058.9519      13637.192      65478.631      87120        
     56500   56500          568.344        303.4842       10545.996      3036.8387      13582.834      65332.24       87120        
     56600   56600          569.32556      300.44379      10499.367      3006.4146      13505.782      65142.307      87120        
     56700   56700          570.31879      298.31323      10469.735      2985.095       13454.83       65033.235      87120        
     56800   56800          571.32094      295.93176      10516.188      2961.2646      13477.452      65187.187      87120        
     56900   56900          572.32188      306.94439      10502.539      3071.4634      13574.002      65177.788      87120        
     57000   57000          573.32674      301.83099      10535.012      3020.2957      13555.308      65286.595      87120        
[...]
    486300   486300         4852.6925      295.03982      10479.831      2952.3394      13432.171      65040.355      87120        
    486400   486400         4853.6872      291.88477      10525.563      2920.7681      13446.331      65195.05       87120        
    486500   486500         4854.6832      303.37478      10498.455      3035.7438      13534.199      65135.557      87120        
    486600   486600         4855.6787      301.77169      10537.775      3019.7023      13557.477      65295.676      87120        
    486700   486700         4856.6682      296.1193       10607.992      2963.1412      13571.133      65561.369      87120        
    486800   486800         4857.6783      303.04242      10590.936      3032.418       13623.354      65502.625      87120        
    486900   486900         4858.6797      306.07188      10582.242      3062.7325      13644.975      65476.32       87120        
    487000   487000         4859.6824      302.10348      10512.297      3023.0225      13535.319      65242.945      87120        
    487100   487100         4860.6644      294.27664      10578.135      2944.7025      13522.838      65375.613      87120        
    487200   487200         4861.6852      300.16161      10615.301      3003.591       13618.892      65589.395      87120        
    487300   487300         4862.6907      298.01593      10691.817      2982.1201      13673.937      65891.478      87120        
    487400   487400         4863.7122      303.00035      10635.924      3031.997       13667.921      65661.933      87120        
    487500   487500         4864.7137      296.74892      10615.53       2969.4416      13584.972      65580.502      87120        
    487600   487600         4865.7201      295.60303      10586.727      2957.9752      13544.702      65486.402      87120        
    487700   487700         4866.7212      306.07594      10597.587      3062.7732      13660.36       65384.047      87120        
    487800   487800         4867.7155      306.18491      10597.638      3063.8636      13661.501      65484.813      87120        
    487900   487900         4868.7155      294.90006      10599.177      2950.9409      13550.118      65463.225      87120        
    488000   488000         4869.7196      295.26548      10570.307      2954.5974      13524.905      65242.895      87120        
    488100   488100         4870.7145      302.14912      10513.13       3023.4791      13536.609      65101.401      87120        
    488200   488200         4871.7218      301.68502      10492.386      3018.8351      13511.221      64983.275      87120        
    488300   488300         4872.7133      295.69732      10454.045      2958.9187      13412.963      64799.97       87120        
    488400   488400         4873.6947      295.63935      10405.582      2958.3386      13363.92       64665.196      87120        
    488500   488500         4874.6876      295.783        10462.157      2959.7761      13421.933      64865.013      87120        
    488600   488600         4875.667       302.2282       10467.205      3024.2705      13491.476      64819.405      87120        
    488700   488700         4876.6482      302.79576      10413.883      3029.9498      13443.833      64652.66       87120        
    488800   488800         4877.6306      298.45509      10422.27       2986.5145      13408.784      64734.878      87120        
    488900   488900         4878.6249      300.09904      10426.978      3002.9649      13429.943      64706.688      87120        
    489000   489000         4879.6181      304.7169       10488.387      3049.1738      13537.561      64969.763      87120        
    489100   489100         4880.6019      306.70452      10514.407      3069.0631      13583.47       65104.678      87120        
    489200   489200         4881.5906      303.84732      10485.923      3040.4723      13526.396      65016.651      87120        
    489300   489300         4882.5809      298.73475      10516.687      2989.313       13506          65111.124      87120        
    489400   489400         4883.5747      294.11455      10575.857      2943.0806      13518.938      65394.807      87120        
    489500   489500         4884.5705      300.91157      10553.674      3011.0955      13564.77       65343.729      87120        
    489600   489600         4885.5934      301.12645      10572.616      3013.2457      13585.862      65374.363      87120        
    489700   489700         4886.6213      300.29124      10583.176      3004.8881      13588.064      65411.471      87120        
    489800   489800         4887.6278      296.93952      10556.246      2971.3488      13527.595      65364.533      87120        
    489900   489900         4888.6508      295.39671      10545.213      2955.9106      13501.124      65342.407      87120        
    490000   490000         4889.663       300.54028      10523.54       3007.3802      13530.92       65280.125      87120        
    490100   490100         4890.6547      299.9068       10592.99       3001.0412      13594.032      65489.926      87120        
    490200   490200         4891.6573      305.64744      10596.199      3058.4853      13654.684      65582.151      87120        
    490300   490300         4892.6787      304.02724      10579.61       3042.2726      13621.883      65460.744      87120        
    490400   490400         4893.6957      296.92497      10571.828      2971.2033      13543.031      65373.977      87120        
    490500   490500         4894.7114      295.4543       10576.101      2956.4869      13532.587      65407.14       87120        
    490600   490600         4895.7306      305.29512      10536.973      3054.9599      13591.932      65214.162      87120        
    490700   490700         4896.7443      301.52877      10575.771      3017.2715      13593.042      65374.729      87120        
    490800   490800         4897.7521      295.32117      10499.183      2955.1547      13454.338      65109.316      87120        
    490900   490900         4898.7798      293.47062      10476.411      2936.637       13413.048      64918.949      87120        
    491000   491000         4899.7738      298.63282      10499.034      2988.293       13487.327      65112.262      87120        
    491100   491100         4900.7675      300.76374      10525.028      3009.6162      13534.644      65161.434      87120        
    491200   491200         4901.7528      301.7607       10507.474      3019.5924      13527.067      65088.829      87120        
    491300   491300         4902.7254      297.25908      10493.332      2974.5465      13467.879      64973.377      87120        
    491400   491400         4903.6998      290.94871      10514.116      2911.4014      13425.518      65162.746      87120        
    491500   491500         4904.6712      297.84612      10474.483      2980.4208      13454.904      64958.214      87120        
    491600   491600         4905.6751      299.7649       10472.482      2999.6213      13472.103      64938.356      87120        
    491700   491700         4906.6633      303.37553      10471.427      3035.7513      13507.178      64963.873      87120        
    491800   491800         4907.6633      305.87458      10477.698      3060.7583      13538.456      65003.237      87120        
    491900   491900         4908.6384      301.44302      10518.509      3016.4135      13534.923      65160.285      87120        
    492000   492000         4909.6281      295.40947      10532.761      2956.0383      13488.799      65206.792      87120        
    492100   492100         4910.5858      290.53806      10640.797      2907.2922      13548.089      65585.847      87120        
    492200   492200         4911.5666      305.39668      10588.624      3055.9761      13644.6        65387.789      87120        
    492300   492300         4912.5537      305.22505      10547.32       3054.2587      13601.579      65280.63       87120        
    492400   492400         4913.5439      300.22338      10520.794      3004.209       13525.003      65165.393      87120        
    492500   492500         4914.5393      294.43339      10551.999      2946.2711      13498.27       65206.839      87120        
    492600   492600         4915.5252      303.70581      10493.204      3039.0563      13532.26       65103.806      87120        
    492700   492700         4916.5106      300.57744      10539.34       3007.752       13547.092      65304.936      87120        
    492800   492800         4917.5047      299.42496      10592.44       2996.2196      13588.66       65480.994      87120        
    492900   492900         4918.5073      309.37364      10577.181      3095.7718      13672.953      65486.236      87120        
    493000   493000         4919.4953      301.85656      10635.256      3020.5517      13655.807      65633.713      87120        
    493100   493100         4920.4835      295.47562      10628.714      2956.7003      13585.414      65585.264      87120        
    493200   493200         4921.4773      300.58525      10576.657      3007.8302      13584.487      65421.254      87120        
    493300   493300         4922.5021      303.96551      10577.929      3041.655       13619.584      65453.259      87120        
    493400   493400         4923.5163      306.40829      10584.147      3066.0988      13650.245      65452.291      87120        
    493500   493500         4924.5259      305.36012      10601.728      3055.6103      13657.338      65550.54       87120        
    493600   493600         4925.5383      300.95977      10574.583      3011.5778      13586.16       65418.573      87120        
    493700   493700         4926.5636      296.23006      10545.741      2964.2496      13509.991      65302.773      87120        
    493800   493800         4927.5731      294.76785      10574.48       2949.6179      13524.098      65357.675      87120        
    493900   493900         4928.5776      301.49494      10592.576      3016.9331      13609.51       65490.759      87120        
    494000   494000         4929.5745      300.84642      10600.097      3010.4436      13610.541      65499.434      87120        
    494100   494100         4930.5729      299.05594      10573.109      2992.527       13565.636      65421.785      87120        
    494200   494200         4931.5822      299.51063      10551.31       2997.0768      13548.387      65277.183      87120        
    494300   494300         4932.5728      298.83124      10564.674      2990.2785      13554.952      65366.734      87120        
    494400   494400         4933.5852      296.66125      10605.49       2968.5644      13574.055      65444.312      87120        
    494500   494500         4934.5824      303.72061      10556.324      3039.2044      13595.528      65391.794      87120        
    494600   494600         4935.5967      298.90983      10585.677      2991.065       13576.742      65385.268      87120        
    494700   494700         4936.6076      296.65956      10539.375      2968.5474      13507.923      65201.887      87120        
    494800   494800         4937.6038      291.13499      10542.233      2913.2654      13455.498      65168.956      87120        
    494900   494900         4938.5976      297.90979      10533.319      2981.0579      13514.377      65197.521      87120        
    495000   495000         4939.5845      306.17636      10516.814      3063.778       13580.592      65129.101      87120        
    495100   495100         4940.5619      304.79249      10482.517      3049.9302      13532.447      64982.592      87120        
    495200   495200         4941.5375      292.80137      10529.481      2929.9402      13459.422      65132.872      87120        
    495300   495300         4942.5157      297.55546      10500.636      2977.5123      13478.148      65011.127      87120        
    495400   495400         4943.5126      300.37213      10514.137      3005.6975      13519.834      65110.054      87120        
    495500   495500         4944.4966      301.37735      10532.494      3015.7564      13548.25       65217.008      87120        
    495600   495600         4945.4991      300.67476      10539.419      3008.7258      13548.144      65247.256      87120        
    495700   495700         4946.4868      289.18926      10582.781      2893.7953      13476.576      65307.61       87120        
    495800   495800         4947.4813      296.99856      10487.283      2971.9396      13459.223      65073.215      87120        
    495900   495900         4948.4819      301.43675      10575.387      3016.3508      13591.738      65260.268      87120        
    496000   496000         4949.4683      307.80783      10521.383      3080.1035      13601.486      65223.343      87120        
    496100   496100         4950.4519      302.6271       10507.294      3028.2621      13535.556      65126.459      87120        
    496200   496200         4951.4493      298.13831      10551.616      2983.3446      13534.961      65321.803      87120        
    496300   496300         4952.4417      300.67892      10518.164      3008.7675      13526.931      65240.458      87120        
    496400   496400         4953.4318      293.54432      10542.157      2937.3745      13479.532      65203.17       87120        
    496500   496500         4954.4238      295.62336      10485.934      2958.1786      13444.113      65083.582      87120        
    496600   496600         4955.4149      296.80332      10549.197      2969.986       13519.183      65274.361      87120        
    496700   496700         4956.421       309.81735      10498.667      3100.2119      13598.879      65134.722      87120        
    496800   496800         4957.4057      303.64059      10500.599      3038.4036      13539.002      65181.844      87120        
    496900   496900         4958.4077      296.28646      10535.397      2964.814       13500.211      65259.311      87120        
    497000   497000         4959.4183      299.65171      10513.207      2998.4886      13511.696      65140.485      87120        
    497100   497100         4960.4096      303.0624       10549.317      3032.618       13581.935      65358.664      87120        
    497200   497200         4961.4065      308.62804      10586.296      3088.3109      13674.607      65429.171      87120        
    497300   497300         4962.4048      300.57465      10630.093      3007.7241      13637.817      65533.639      87120        
    497400   497400         4963.4009      303.12022      10505.185      3033.1965      13538.382      65172.436      87120        
    497500   497500         4964.421       299.66646      10527.143      2998.6363      13525.779      65191.916      87120        
    497600   497600         4965.4269      302.04375      10513.851      3022.4248      13536.276      65191.919      87120        
    497700   497700         4966.4109      302.78345      10495.41       3029.8266      13525.236      65143.684      87120        
    497800   497800         4967.4398      297.12277      10520.707      2973.1826      13493.889      65164.334      87120        
    497900   497900         4968.432       296.13632      10488.841      2963.3116      13452.152      65060.472      87120        
    498000   498000         4969.4343      301.59985      10487.291      3017.9828      13505.274      65075.151      87120        
    498100   498100         4970.4152      307.08487      10458.026      3072.8691      13530.896      65039.26       87120        
    498200   498200         4971.3887      303.45252      10452.832      3036.5218      13489.354      64903.487      87120        
    498300   498300         4972.3895      300.12721      10471.925      3003.2468      13475.172      65032.712      87120        
    498400   498400         4973.397       293.30288      10548.816      2934.9586      13483.775      65263.642      87120        
    498500   498500         4974.395       296.18007      10619.843      2963.7493      13583.593      65568.81       87120        
    498600   498600         4975.3814      304.74014      10617.87       3049.4064      13667.277      65559.029      87120        
    498700   498700         4976.4015      299.72369      10606.417      2999.2089      13605.626      65580.325      87120        
    498800   498800         4977.4033      298.15876      10544.761      2983.5492      13528.31       65290.244      87120        
    498900   498900         4978.3932      301.19229      10505.339      3013.9046      13519.243      65175.627      87120        
    499000   499000         4979.4059      298.74522      10556.339      2989.4177      13545.757      65332.88       87120        
    499100   499100         4980.3962      303.00789      10559.49       3032.0725      13591.562      65315.986      87120        
    499200   499200         4981.379       310.98544      10540.821      3111.9005      13652.722      65280.246      87120        
    499300   499300         4982.3873      300.2988       10587.68       3004.9637      13592.644      65437.975      87120        
    499400   499400         4983.3873      296.43737      10544.559      2966.3241      13510.883      65206.979      87120        
    499500   499500         4984.3651      298.39279      10491.785      2985.8911      13477.676      65095.487      87120        
    499600   499600         4985.3579      302.79287      10487.259      3029.9209      13517.179      65051.581      87120        
    499700   499700         4986.3387      303.60191      10552.213      3038.0166      13590.23       65201.982      87120        
    499800   499800         4987.336       299.47285      10574.375      2996.6988      13571.074      65408.226      87120        
    499900   499900         4988.3381      291.41151      10512.502      2916.0324      13428.535      65140.426      87120        
    500000   500000         4989.3374      292.85908      10486.302      2930.5176      13416.819      65015.146      87120        
Loop time of 4989.34 on 8 procs for 500000 steps with 4353 atoms

Performance: 8.658 ns/day, 2.772 hours/ns, 100.214 timesteps/s, 436.230 katom-step/s
99.1% CPU use with 8 MPI tasks x no OpenMP threads

MPI task timing breakdown:
Section |  min time  |  avg time  |  max time  |%varavg| %total
---------------------------------------------------------------
Pair    | 112.76     | 1323.2     | 4189.9     |4483.6 | 26.52
Bond    | 1.4964     | 17.344     | 23.773     | 219.5 |  0.35
Neigh   | 528.2      | 530.58     | 533.15     |   8.3 | 10.63
Comm    | 127.41     | 2963.7     | 4160       |2963.3 | 59.40
Output  | 1.6414     | 1.7649     | 1.9504     |   7.0 |  0.04
Modify  | 120.58     | 134.87     | 146.4      |  86.5 |  2.70
Other   |            | 17.84      |            |       |  0.36

Nlocal:        544.125 ave        1375 max         220 min
Histogram: 4 2 0 0 0 0 0 0 0 2
Nghost:         4608.5 ave        6925 max         736 min
Histogram: 2 0 0 0 0 0 0 4 0 2
Neighs:         192124 ave      609219 max       18890 min
Histogram: 4 2 0 0 0 0 0 0 0 2

Total # of neighbors = 1536994
Ave neighs/atom = 353.08844
Ave special neighs/atom = 6.3542385
Neighbor list builds = 34608
Dangerous builds = 0
unfix                  mynvt


write_data             nvt_500ps.data
System init for write_data ...
Generated 21 of 21 mixed pair_coeff terms from arithmetic mixing rule
WARNING: Dihedrals are defined but no dihedral style is set (../force.cpp:207)
WARNING: Likewise 1-4 special neighbor interactions != 1.0 (../force.cpp:209)
WARNING: Impropers are defined but no improper style is set (../force.cpp:212)












Total wall time: 1:23:09
