LAMMPS data file via write_data, version 29 Aug 2024, timestep = 500000, units = real

4353 atoms
7 atom types
3924 bonds
5 bond types
4653 angles
5 angle types
6987 dihedrals
1 dihedral types
1158 impropers
1 improper types

-0.1495 32.8505 xlo xhi
-0.193001 32.806999 ylo yhi
-38.75 41.25 zlo zhi

Masses

1 12.0107
2 12.0107
3 12.0107
4 12.0107
5 1.00794
6 15.9994
7 15.9994

Pair Coeffs # lj/cut

1 0.0859 3.3997
2 0.0559 2.757
3 0.0859 3.3997
4 0.0859 3.3997
5 0 1
6 0.1598 3.033
7 0.1521 3.1507

Bond Coeffs # harmonic

1 938 1.42
2 190.96 1.149
3 938 1.42
4 938 1.42
5 450 0.9572

Angle Coeffs # harmonic

1 126 120
2 126 120
3 126 120
4 55 104.52
5 295.4 180

Atoms # full

3876 1 4 0 1.7530397975782481 0.9800743634905691 -30 0 0 0
3879 4 4 0 2.072851826969371 3.778572460604469 -30 0 0 0
3880 5 4 0 4.1427843926916665 0.9861386916027075 -30 0 0 0
3881 6 4 0 2.982425160194949 1.6755385518005828 -30 0 0 0
3882 7 4 0 3.166082750485951 3.0536651445855103 -30 0 0 0
3883 8 4 0 4.3081072859442955 3.6861767556272365 -30 0 0 0
3885 10 4 0 5.337921137036351 1.6341467742461042 -30 0 0 0
3886 11 4 0 5.412626134845835 2.970217885399845 -30 0 0 0
3932 57 4 0 1.930875218201115 5.079279203761704 -30 0 0 0
3936 61 4 0 4.282199141415693 5.01205766007695 -30 0 0 0
3937 62 4 0 3.130368779915736 5.703808741015053 -30 0 0 0
3941 66 4 0 5.446121620976997 5.65352916304053 -30 0 0 0
3877 2 4 0 0.6549703122799412 1.7836295957303434 -30 0 0 0
3878 3 4 0 1.5690324242310767 2.628679575871804 -30 0 0 0
3933 58 4 0 0.7634201913855307 5.721534407054536 -30 0 0 0
3938 63 4 0 3.208009498358016 7.021236011752968 -30 0 0 0
3942 67 4 0 5.48548519885697 6.982327070629829 -30 0 0 0
3934 59 4 0 0.9625193651529501 7.064713527120376 -30 0 0 0
3935 60 4 0 2.0963778874529075 7.707730285700552 -30 0 0 0
3939 64 4 0 4.356975842366232 7.66762226692586 -30 0 0 0
3884 9 4 0 6.501902470206926 0.969322835341949 -30 0 0 0
3887 12 4 0 6.56764954503872 3.6300743898299 -30 0 0 0
3940 65 4 0 6.585621832399118 4.967163653834862 -30 0 0 0
3888 13 4 0 8.832782806387796 0.9675885555898919 -30 0 0 0
3889 14 4 0 7.672947628198855 1.6277054865037317 -30 0 0 0
3890 15 4 0 7.708241610534083 2.9590447326316296 -30 0 0 0
3891 16 4 0 8.863845472337719 3.6254517097102474 -30 0 0 0
3892 17 4 0 11.149021735597035 0.9683340760186222 -30 0 0 0
3893 18 4 0 9.994068103020808 1.6302463211179592 -30 0 0 0
3894 19 4 0 10.011170474400599 2.9593514563283034 -30 0 0 0
3895 20 4 0 11.164194689246646 3.6273950157756394 -30 0 0 0
3897 22 4 0 12.303065320243062 1.6349369087437635 -30 0 0 0
3898 23 4 0 12.311500995259664 2.9637686370100473 -30 0 0 0
3944 69 4 0 8.88240830656051 4.955402903085513 -30 0 0 0
3945 70 4 0 7.742944217501753 5.630572875237513 -30 0 0 0
3948 73 4 0 11.179420218750025 4.957012876224524 -30 0 0 0
3949 74 4 0 10.033470604087109 5.624311836559218 -30 0 0 0
3953 78 4 0 12.329308205045335 5.628251135799175 -30 0 0 0
3946 71 4 0 7.768076401097535 6.959499833566645 -30 0 0 0
3950 75 4 0 10.055126585802741 6.955582086083513 -30 0 0 0
3954 79 4 0 12.341427093859052 6.959637279285972 -30 0 0 0
3943 68 4 0 6.6370998229309635 7.6424595608142605 -30 0 0 0
3947 72 4 0 8.913759757586135 7.627782806429842 -30 0 0 0
3951 76 4 0 11.201862203471716 7.628334471405859 -30 0 0 0
3896 21 4 0 13.453908550406076 0.9687367294635234 -30 0 0 0
3899 24 4 0 13.462094771143196 3.6331434897445023 -30 0 0 0
3900 25 4 0 15.750220958619522 0.9704545648440833 -30 0 0 0
3901 26 4 0 14.603107861988907 1.6383285377071215 -30 0 0 0
3902 27 4 0 14.608898201247381 2.9687551147876725 -30 0 0 0
3903 28 4 0 15.755467023981033 3.638357076640108 -30 0 0 0
3904 29 4 0 18.038035231560087 0.9691033754221994 -30 0 0 0
3905 30 4 0 16.89535151412023 1.6414349617990467 -30 0 0 0
3906 31 4 0 16.899324380589004 2.971652688724536 -30 0 0 0
3907 32 4 0 18.043162839991375 3.6425763926274533 -30 0 0 0
3909 34 4 0 19.180617008873877 1.6434254372927128 -30 0 0 0
3910 35 4 0 19.184388315255607 2.9724614643351197 -30 0 0 0
3952 77 4 0 13.472495908552668 4.964095774344279 -30 0 0 0
3956 81 4 0 15.764480883484516 4.968798363909133 -30 0 0 0
3957 82 4 0 14.620114839799474 5.6346524932894875 -30 0 0 0
3960 85 4 0 18.052531469026405 4.972622168836632 -30 0 0 0
3961 86 4 0 16.91012917608964 5.639577580573708 -30 0 0 0
3965 90 4 0 19.195820550178446 5.643124573838134 -30 0 0 0
3958 83 4 0 14.630213571073732 6.965180058378466 -30 0 0 0
3962 87 4 0 16.92194737807093 6.970166761180927 -30 0 0 0
3966 91 4 0 19.209280723465564 6.97262204035692 -30 0 0 0
3955 80 4 0 13.488142814742694 7.631095859912376 -30 0 0 0
3959 84 4 0 15.77703341950305 7.637382284346092 -30 0 0 0
3963 88 4 0 18.067016625856454 7.6399627364935725 -30 0 0 0
3908 33 4 0 20.321308247168677 0.969737914718896 -30 0 0 0
3911 36 4 0 20.326699749597953 3.6429062432779316 -30 0 0 0
3912 37 4 0 22.605070411191114 0.9660330895083353 -30 0 0 0
3913 38 4 0 21.46338955514676 1.6404287639328574 -30 0 0 0
3914 39 4 0 21.464215497236957 2.9693214293788786 -30 0 0 0
3915 40 4 0 22.609139108236967 3.6333893827851953 -30 0 0 0
3916 41 4 0 24.893489680847644 0.9587408910937271 -30 0 0 0
3917 42 4 0 23.75093728780072 1.6303953662404707 -30 0 0 0
3918 43 4 0 23.741756606435818 2.9551164798850094 -30 0 0 0
3919 44 4 0 24.881516936004214 3.6108921011918187 -30 0 0 0
3964 89 4 0 20.33609817619413 4.9715622352192375 -30 0 0 0
3968 93 4 0 22.617372898480124 4.962791966463775 -30 0 0 0
3969 94 4 0 21.48245750742635 5.638988409912469 -30 0 0 0
3972 97 4 0 24.896546134097292 4.939062780678956 -30 0 0 0
3973 98 4 0 23.767349870521816 5.622426120261299 -30 0 0 0
3921 46 4 0 26.046643655842313 1.601312855824742 -30 0 0 0
3922 47 4 0 26.008122263980148 2.922180305469773 -30 0 0 0
3977 102 4 0 26.046977669890282 5.5861796832133015 -30 0 0 0
3970 95 4 0 21.497954105418128 6.967307048518988 -30 0 0 0
3974 99 4 0 23.786312299965584 6.951291266844632 -30 0 0 0
3978 103 4 0 26.081123776387198 6.911723842227198 -30 0 0 0
3967 92 4 0 20.356371814731922 7.640903079802499 -30 0 0 0
3971 96 4 0 22.64960988631039 7.630297350646448 -30 0 0 0
3975 100 4 0 24.94631753264644 7.601234750617355 -30 0 0 0
3928 53 4 0 31.526931309722737 1.0169039077054753 -30 0 0 0
3931 56 4 0 31.36040684073859 4.856514757805093 -30 0 0 0
3984 109 4 0 31.921300208709425 3.8052072707828932 -30 0 0 0
3920 45 4 0 27.21079424847164 0.9436613729197714 -30 0 0 0
3923 48 4 0 27.138164605643762 3.565925059950918 -30 0 0 0
3924 49 4 0 29.62907724746509 1.1339570798003704 -30 0 0 0
3925 50 4 0 28.36864747582916 1.5913015270700186 -30 0 0 0
3926 51 4 0 28.255894449198546 2.880495309250352 -30 0 0 0
3927 52 4 0 29.323976082959224 3.5941292436992427 -30 0 0 0
3929 54 4 0 30.667283320212427 2.052409722127626 -30 0 0 0
3930 55 4 0 30.60365024792783 3.50953804643584 -30 0 0 0
3976 101 4 0 27.16589826219981 4.891640981528818 -30 0 0 0
3980 105 4 0 29.412383732051204 4.78496070278755 -30 0 0 0
3981 106 4 0 28.328463425051773 5.524087588169483 -30 0 0 0
3985 110 4 0 30.764103105137863 4.886118539055646 -30 0 0 0
3986 111 4 0 30.715855338239127 6.381646902785789 -30 0 0 0
3982 107 4 0 28.380192675484917 6.81429427340934 -30 0 0 0
3987 112 4 0 31.70985413784597 7.2928606821874835 -30 0 0 0
3979 104 4 0 27.254782169629042 7.534716216016809 -30 0 0 0
3983 108 4 0 29.61146885375493 7.2769016005138365 -30 0 0 0
3988 113 4 0 2.076011705770652 9.029124592900502 -30 0 0 0
3991 116 4 0 2.1276347139352962 11.676909239648172 -30 0 0 0
3992 117 4 0 4.367567197428358 8.994708331830786 -30 0 0 0
3993 118 4 0 3.2319085938250534 9.67758040878909 -30 0 0 0
3994 119 4 0 3.2554710097337063 10.999767251783073 -30 0 0 0
3995 120 4 0 4.395197298301652 11.658921139877076 -30 0 0 0
3997 122 4 0 5.515892202905029 9.652643367371356 -30 0 0 0
3998 123 4 0 5.529944216074061 10.981720891552433 -30 0 0 0
4044 169 4 0 2.113501832365213 12.99853692700398 -30 0 0 0
4048 173 4 0 4.395240732809051 12.985687959619188 -30 0 0 0
3989 114 4 0 0.9157523283508854 9.687162204808034 -30 0 0 0
3990 115 4 0 0.9882664163343855 11.030322365155554 -30 0 0 0
4047 172 4 0 2.120345648049745 15.64614014134655 -30 0 0 0
4049 174 4 0 3.256851087832056 13.659024416543255 -30 0 0 0
4050 175 4 0 3.2589041550889872 14.980914165725268 -30 0 0 0
4051 176 4 0 4.399567948897834 15.64417176179806 -30 0 0 0
4053 178 4 0 5.538056620438445 13.648501272469096 -30 0 0 0
4054 179 4 0 5.539089662763376 14.97615025406205 -30 0 0 0
4045 170 4 0 0.9598473142882284 13.651138438831323 -30 0 0 0
4046 171 4 0 0.9750101231832845 14.993150373350595 -30 0 0 0
3996 121 4 0 6.651010939328682 8.972487914195495 -30 0 0 0
3999 124 4 0 6.671232043433309 11.64735569684647 -30 0 0 0
4052 177 4 0 6.673463541575038 12.974445533312338 -30 0 0 0
4000 125 4 0 8.93027460558915 8.961024253224902 -30 0 0 0
4001 126 4 0 7.793202199620703 9.63724902400216 -30 0 0 0
4002 127 4 0 7.804848202324371 10.966393524811934 -30 0 0 0
4003 128 4 0 8.948143222888891 11.637856402583001 -30 0 0 0
4004 129 4 0 11.213271370196164 8.958821548802568 -30 0 0 0
4005 130 4 0 10.077085124184695 9.632418380433608 -30 0 0 0
4006 131 4 0 10.085119866858756 10.963601983754078 -30 0 0 0
4007 132 4 0 11.225988722954067 11.633372967947114 -30 0 0 0
4009 134 4 0 12.356274597584454 9.630820726175875 -30 0 0 0
4010 135 4 0 12.366462177299713 10.964105959562971 -30 0 0 0
4056 181 4 0 8.952522252017994 12.969351650135934 -30 0 0 0
4060 185 4 0 11.231436553493689 12.965641830328211 -30 0 0 0
4055 180 4 0 6.6774682221684865 15.643807928872308 -30 0 0 0
4057 182 4 0 7.814322409935827 13.6400833587072 -30 0 0 0
4058 183 4 0 7.815649872564399 14.972214502717497 -30 0 0 0
4059 184 4 0 8.956247963928657 15.642285529257112 -30 0 0 0
4061 186 4 0 10.092106202748312 13.639268794012422 -30 0 0 0
4062 187 4 0 10.093190124206618 14.969700456016023 -30 0 0 0
4063 188 4 0 11.235153706861407 15.639878620451787 -30 0 0 0
4065 190 4 0 12.37383742381628 13.639172576435671 -30 0 0 0
4066 191 4 0 12.376972000078002 14.96964645381595 -30 0 0 0
4008 133 4 0 13.498464779612364 8.963519743799763 -30 0 0 0
4011 136 4 0 13.510231992242216 11.636551093953464 -30 0 0 0
4012 137 4 0 15.787214781773072 8.968221364845427 -30 0 0 0
4013 138 4 0 14.645160525002925 9.635938442497144 -30 0 0 0
4014 139 4 0 14.650825033461993 10.967338424167732 -30 0 0 0
4015 140 4 0 15.796311809267236 11.638340342177564 -30 0 0 0
4016 141 4 0 18.077757576253934 8.971023489721764 -30 0 0 0
4017 142 4 0 16.93200248311129 9.639147170514557 -30 0 0 0
4018 143 4 0 16.941185816709048 10.970205643605913 -30 0 0 0
4019 144 4 0 18.08796312991666 11.640939537913228 -30 0 0 0
4021 146 4 0 19.226249271925763 9.640210746724566 -30 0 0 0
4022 147 4 0 19.233456140286922 10.970900625042486 -30 0 0 0
4064 189 4 0 13.515345724982254 12.96757311607338 -30 0 0 0
4068 193 4 0 15.801040387018713 12.971271543966095 -30 0 0 0
4072 197 4 0 18.092206350611523 12.972059874335942 -30 0 0 0
4067 192 4 0 13.517333505970424 15.641217462613865 -30 0 0 0
4069 194 4 0 14.657501948036812 13.639179775949769 -30 0 0 0
4070 195 4 0 14.661340271796837 14.970613006835189 -30 0 0 0
4071 196 4 0 15.805282995949854 15.642178829518013 -30 0 0 0
4073 198 4 0 16.94784177577201 13.640891741683662 -30 0 0 0
4074 199 4 0 16.948691820589712 14.972360004375792 -30 0 0 0
4075 200 4 0 18.095180528680068 15.64097327292128 -30 0 0 0
4077 202 4 0 19.23925437077131 13.640392759803257 -30 0 0 0
4078 203 4 0 19.24135762580129 14.972121659664205 -30 0 0 0
4020 145 4 0 20.368981047068555 8.969971100024516 -30 0 0 0
4023 148 4 0 20.382183232731794 11.636717735126192 -30 0 0 0
4024 149 4 0 22.663471387172404 8.959585310240149 -30 0 0 0
4025 150 4 0 21.518548931372685 9.634242270807858 -30 0 0 0
4026 151 4 0 21.527774219013473 10.965643294834123 -30 0 0 0
4027 152 4 0 22.6783963991067 11.627094231006193 -30 0 0 0
4028 153 4 0 24.96015155318656 8.931101423879932 -30 0 0 0
4029 154 4 0 23.818860225143933 9.614732725170777 -30 0 0 0
4030 155 4 0 23.822822697091592 10.94700232652652 -30 0 0 0
4031 156 4 0 24.977702243502726 11.599319422756663 -30 0 0 0
4076 201 4 0 20.387003000263302 12.96889331613388 -30 0 0 0
4080 205 4 0 22.68127460072618 12.960568824822932 -30 0 0 0
4084 209 4 0 24.973595423538146 12.937128757012658 -30 0 0 0
4033 158 4 0 26.12585088001162 9.566076832182937 -30 0 0 0
4034 159 4 0 26.11792395705836 10.9016036972615 -30 0 0 0
4079 204 4 0 20.389370660173583 15.640057616320167 -30 0 0 0
4081 206 4 0 21.535850157569524 13.636482176598774 -30 0 0 0
4082 207 4 0 21.53669441030489 14.968505142482252 -30 0 0 0
4083 208 4 0 22.684208963064993 15.639054268316878 -30 0 0 0
4085 210 4 0 23.83209611594721 13.62359939605484 -30 0 0 0
4086 211 4 0 23.830680173174475 14.961592596834123 -30 0 0 0
4087 212 4 0 24.974734372399197 15.636853549626622 -30 0 0 0
4089 214 4 0 26.121092197112983 13.598316034420552 -30 0 0 0
4090 215 4 0 26.113834562463882 14.946877913185862 -30 0 0 0
4040 165 4 0 31.776606643605692 8.659604049196703 -30 0 0 0
4043 168 4 0 31.73827268195606 11.495327583007473 -30 0 0 0
4096 221 4 0 31.76271422872518 12.853358188548679 -30 0 0 0
4032 157 4 0 27.263270248180408 8.85924080241225 -30 0 0 0
4035 160 4 0 27.273742379423897 11.542878754486091 -30 0 0 0
4036 161 4 0 29.57474828247719 8.674975264426807 -30 0 0 0
4037 162 4 0 28.444318691799158 9.447472692816117 -30 0 0 0
4038 163 4 0 28.40598252010475 10.811603146381678 -30 0 0 0
4039 164 4 0 29.52851141383412 11.499874946989747 -30 0 0 0
4041 166 4 0 30.678066054429248 9.402815833237508 -30 0 0 0
4042 167 4 0 30.64185624421582 10.76785481268584 -30 0 0 0
4088 213 4 0 27.257219240746778 12.894750091430762 -30 0 0 0
4092 217 4 0 29.518505090087707 12.863004543936986 -30 0 0 0
4099 224 4 0 31.746927481305388 15.629623742012289 -30 0 0 0
4091 216 4 0 27.250307037793544 15.632292193746638 -30 0 0 0
4093 218 4 0 28.39030509730953 13.575757619463484 -30 0 0 0
4094 219 4 0 28.379840542246388 14.931683878441927 -30 0 0 0
4095 220 4 0 29.507520734865015 15.628143161200253 -30 0 0 0
4097 222 4 0 30.643317601182986 13.568075704066816 -30 0 0 0
4098 223 4 0 30.631861020345262 14.92135629693456 -30 0 0 0
2986 1 1 0 1.6709804693146748 0.5496783328109387 -1.1413634372354151 0 0 0
2989 4 1 0 1.6827134875056033 3.2058810263115674 -0.520277298965053 0 0 0
2990 5 1 0 4.1250026370360695 0.6048564181263036 -1.089736311077486 0 0 0
2991 6 1 0 2.8793224962762096 1.251742148229307 -1.3351862943151236 0 0 0
2992 7 1 0 2.8022340736026154 2.6592647334986887 -1.1853556466107336 0 0 0
2993 8 1 0 4.004217756842036 3.365046076202444 -1.0362230026221864 0 0 0
2995 10 1 0 5.303613189994678 1.3408389572262132 -1.362321129249031 0 0 0
2996 11 1 0 5.216838248689184 2.734672722750624 -1.3289769391316546 0 0 0
2997 12 1 0 6.359735570162746 3.4369624394193523 -0.9369606228684403 0 0 0
3042 57 1 0 1.6382798820068216 4.619901275478597 -0.39959928972341746 0 0 0
3046 61 1 0 4.003577571802575 4.6186730975447645 -0.38169383533690626 0 0 0
3047 62 1 0 2.8244152655393533 5.342526844127368 -0.5232738698794065 0 0 0
3050 65 1 0 6.279211609657477 4.819234691060917 -1.0061914389794022 0 0 0
3051 66 1 0 5.188021856055914 5.378096647541977 -0.3374094915856069 0 0 0
2987 2 1 0 0.8291698415568456 1.0283445259190773 -0.11531135863996407 0 0 0
2988 3 1 0 1.0145038367588475 2.3395933700522336 0.3770252255605312 0 0 0
3043 58 1 0 0.5889798921461415 5.357120851725025 0.1685863842306976 0 0 0
3048 63 1 0 2.8046086233694356 6.655675298520326 -1.0405987435608444 0 0 0
3052 67 1 0 5.099834281587595 6.781845934998737 -0.39253446040707085 0 0 0
3044 59 1 0 0.8843143644341142 6.747111706421322 0.32196865871254426 0 0 0
3045 60 1 0 1.6421605871105605 7.376241470720132 -0.7099340925213803 0 0 0
3049 64 1 0 4.033832432444005 7.357149918630372 -1.1133814635581427 0 0 0
3053 68 1 0 6.3167573259356375 7.478629893239755 -0.3310271455614913 0 0 0
3199 217 1 0 29.690441388233943 12.882074771679532 0.08710393393134208 0 0 0
2994 9 1 0 6.583937487490283 0.8675001789432657 -1.0229421289604543 0 0 0
2998 13 1 0 8.39843928227891 0.9078967567023438 0.7045059263468535 0 0 0
2999 14 1 0 7.279951189122283 1.4917900089538771 0.04845152974556582 0 0 0
3000 15 1 0 7.328919564450858 2.8796647767542716 -0.08486740363660512 0 0 0
3001 16 1 0 8.602003096247643 3.4271977024691607 -0.2927589774414783 0 0 0
3002 17 1 0 10.876759970107715 0.6480537087862202 0.616109677671974 0 0 0
3003 18 1 0 9.67618398298023 1.330237024818133 0.26771650704498173 0 0 0
3004 19 1 0 9.729945353320913 2.5855479401395502 -0.37001788487245935 0 0 0
3005 20 1 0 10.973125675295874 3.226668849150997 -0.4480081078386696 0 0 0
3007 22 1 0 12.132515444279491 1.1966609339672434 0.2495429795436532 0 0 0
3008 23 1 0 12.146071574353911 2.450792815751747 -0.4049884811501547 0 0 0
3054 69 1 0 8.645115040329818 4.685597659540192 -0.9247570999533861 0 0 0
3055 70 1 0 7.491548629455571 5.491667308642465 -0.9325228276723414 0 0 0
3058 73 1 0 11.040329548635425 4.590118908582694 -0.8276980273927713 0 0 0
3059 74 1 0 9.859982038857096 5.363099544875772 -0.868866616080606 0 0 0
3063 78 1 0 12.241525323410182 5.273619381543982 -0.5884205902461994 0 0 0
3056 71 1 0 7.463714817648045 6.68216300200429 -0.18543356238906863 0 0 0
3060 75 1 0 9.864018494753712 6.654101367186101 -0.3015823576282708 0 0 0
3064 79 1 0 12.220083494722074 6.671503317295559 -0.40948221839486904 0 0 0
3057 72 1 0 8.678214924272583 7.343568780282639 0.03310782501332133 0 0 0
3061 76 1 0 11.025582591202019 7.382341401055814 -0.5212210564238149 0 0 0
3006 21 1 0 13.347460010627742 0.6660602748895313 0.769361519893429 0 0 0
3009 24 1 0 13.352079193025409 3.15711944235395 -0.45895121476707496 0 0 0
3010 25 1 0 15.829645221721329 0.8393458843869716 0.927469812234088 0 0 0
3011 26 1 0 14.582477536395174 1.251878694792687 0.3730746868492056 0 0 0
3012 27 1 0 14.542669167492217 2.4212501387846954 -0.4215856486695307 0 0 0
3013 28 1 0 15.725149423589347 3.137447379959483 -0.6513338441585051 0 0 0
3014 29 1 0 18.313693002370876 0.8833333612363901 0.7468535962657656 0 0 0
3015 30 1 0 17.02807885913451 1.3534481563347285 0.35139430144930545 0 0 0
3016 31 1 0 16.93494644711842 2.42845568023285 -0.5710280855883475 0 0 0
3017 32 1 0 18.09154498952316 3.1563617125712953 -0.9076271671208134 0 0 0
3019 34 1 0 19.463312881663708 1.4754027942932975 0.14627326369659255 0 0 0
3020 35 1 0 19.3316854047842 2.5004395352184217 -0.8159521247999537 0 0 0
3062 77 1 0 13.342851176062526 4.532120427212439 -0.13175597438753245 0 0 0
3066 81 1 0 15.741431522995608 4.525411761278595 -0.3607269103233693 0 0 0
3067 82 1 0 14.564846065866309 5.225827978304712 -0.042706972885713686 0 0 0
3070 85 1 0 18.077197543317887 4.566757141474096 -0.7596331210309779 0 0 0
3071 86 1 0 16.96280822509107 5.196502081734754 -0.1909187964681863 0 0 0
3075 90 1 0 19.28727307165374 5.274113207849184 -0.7144246071371988 0 0 0
3068 83 1 0 14.571995325951526 6.625547593253363 -0.2518534002346311 0 0 0
3072 87 1 0 16.971419887181494 6.610994167291902 -0.07636614990464907 0 0 0
3076 91 1 0 19.296602386781355 6.674921750441877 -0.7687569278832639 0 0 0
3065 80 1 0 13.389968492483735 7.35790209493668 -0.08627578951163906 0 0 0
3069 84 1 0 15.779890265750105 7.340407561606225 -0.2462022455650866 0 0 0
3073 88 1 0 18.15985542592508 7.339153642107448 -0.2846170378445772 0 0 0
3018 33 1 0 20.800234561745604 1.1428691593505251 0.4672831857535272 0 0 0
3021 36 1 0 20.474829880114623 3.304941995194959 -1.0161701618286043 0 0 0
3022 37 1 0 22.83634625139778 0.6162867774287617 -0.9648252915631531 0 0 0
3023 38 1 0 21.697852246439876 1.3711610296647097 -0.6164296082255389 0 0 0
3024 39 1 0 21.705680402268786 2.649201444908544 -1.1453990189465464 0 0 0
3025 40 1 0 22.90525075055557 3.332848186182078 -0.8874108882391154 0 0 0
3026 41 1 0 25.249970153075207 0.6805560572910972 -1.2115271650605064 0 0 0
3027 42 1 0 24.066833809950197 1.2244115871538082 -0.6715660578102052 0 0 0
3028 43 1 0 24.021515442359586 2.605994373090323 -0.3871818403866173 0 0 0
3029 44 1 0 25.2395914884731 3.2966749534966526 -0.1883462532316321 0 0 0
3074 89 1 0 20.440000200895202 4.559261340821717 -0.3936662603948497 0 0 0
3078 93 1 0 22.810142274665846 4.706453134805841 -0.6322353255244205 0 0 0
3079 94 1 0 21.629470115233655 5.253657973584648 -0.09828842836964571 0 0 0
3082 97 1 0 25.20900323817181 4.679825500587336 -0.4661470251468133 0 0 0
3083 98 1 0 24.006129154992852 5.384749787178313 -0.4327202809480328 0 0 0
3080 95 1 0 21.576996188932217 6.663307920115157 0.015193774611449714 0 0 0
3084 99 1 0 24.016509764893286 6.671979956793404 0.10337125546989724 0 0 0
3077 92 1 0 20.52379260792401 7.33893066545222 -0.6451196496748057 0 0 0
3081 96 1 0 22.79274356499608 7.365662788350917 0.19715451462497557 0 0 0
3085 100 1 0 25.17407724729229 7.408728169942495 -0.19139996253110078 0 0 0
3041 56 1 0 31.74719845279624 3.2471681599281204 -1.2655153662400578 0 0 0
3094 109 1 0 31.478780252637094 4.582778555584079 -1.684507721376539 0 0 0
3030 45 1 0 27.685626724403885 0.6710081465975197 -1.1592517642952382 0 0 0
3031 46 1 0 26.460953172387192 1.246734986920785 -0.7575557792520046 0 0 0
3032 47 1 0 26.465915608375518 2.612016969820723 -0.3776047445655633 0 0 0
3033 48 1 0 27.58804077642305 3.369344794519029 -0.7698123669793226 0 0 0
3034 49 1 0 30.068912888198778 0.7837383897137336 -0.4820221454449362 0 0 0
3035 50 1 0 28.874094231045124 1.3893409589622951 -0.88042553310804 0 0 0
3036 51 1 0 28.83576791162674 2.7666131170952353 -0.6762119519852738 0 0 0
3037 52 1 0 29.861885921131112 3.3930605327757166 0.07330071655468266 0 0 0
3039 54 1 0 31.06612571757552 1.4721386846877533 0.24303809040537608 0 0 0
3040 55 1 0 31.1338603799098 2.8371520566549533 -0.05680464935649172 0 0 0
3086 101 1 0 27.58003521082428 4.758121327145005 -0.6397266166648656 0 0 0
3087 102 1 0 26.351769416585626 5.390374396173872 -0.8563501716683259 0 0 0
3090 105 1 0 29.83049080552993 4.787100186632508 0.08613789716335712 0 0 0
3091 106 1 0 28.556332950692656 5.352966189556326 0.18225260205059904 0 0 0
3095 110 1 0 30.740706464103724 5.41050816647946 -0.7896484949701368 0 0 0
3088 103 1 0 26.315867129706085 6.783140776875454 -0.6939520944895361 0 0 0
3092 107 1 0 28.546788142653632 6.748917815760306 0.28574608943008556 0 0 0
3096 111 1 0 30.65249591198062 6.821135527318051 -0.8673521031018077 0 0 0
3097 112 1 0 31.7788813128792 7.656049950724474 -1.0355008099589047 0 0 0
3089 104 1 0 27.485101112897652 7.432561682243609 -0.31628143489645205 0 0 0
3093 108 1 0 29.764146462769773 7.390777802118464 0.04892672883978511 0 0 0
3099 114 1 0 0.9607770521617869 9.49565033221295 -1.8727720860828652 0 0 0
3100 115 1 0 1.0406069867409362 10.926566081897063 -1.8683169693987713 0 0 0
3098 113 1 0 1.6693916488640883 8.795054551497095 -0.8561318718586235 0 0 0
3101 116 1 0 1.8647553131609993 11.559011470081447 -0.881726860950489 0 0 0
3102 117 1 0 4.017542325820433 8.779222463349024 -1.138888151495992 0 0 0
3103 118 1 0 2.893296422704601 9.39464480254463 -0.5504469758900474 0 0 0
3104 119 1 0 2.899435891613854 10.783726968044599 -0.3098912512961274 0 0 0
3105 120 1 0 4.141482328985685 11.408882812335523 -0.060373668617929345 0 0 0
3106 121 1 0 6.438349888187052 8.717213304654086 -0.9893107424473581 0 0 0
3107 122 1 0 5.2520465353565555 9.473193822126714 -1.1135805638105623 0 0 0
3108 123 1 0 5.296229974843857 10.770930736647538 -0.5677715423823865 0 0 0
3154 169 1 0 1.862101856429352 12.950457497717117 -0.550644623944832 0 0 0
3158 173 1 0 4.172717021954437 12.819100586702772 0.09625169702528828 0 0 0
3157 172 1 0 1.8275632190012616 15.567762559535005 0.6385165489692408 0 0 0
3159 174 1 0 2.948430427546246 13.49673419551752 0.1490075899648374 0 0 0
3160 175 1 0 2.9841093442459785 14.907545506891752 0.17992993594913823 0 0 0
3161 176 1 0 3.9617801321534283 15.598000489616084 -0.5741511470630204 0 0 0
3163 178 1 0 5.2150079223830765 13.529503767836774 -0.5311488326320587 0 0 0
3164 179 1 0 5.210083631478468 14.940473214859031 -0.5752489565630677 0 0 0
3165 180 1 0 6.28647370180835 15.600763763661018 0.056488525349414974 0 0 0
3155 170 1 0 0.7797988385437642 13.849914424841847 -0.6389541679517617 0 0 0
3156 171 1 0 0.6522699348173281 14.842291923238655 0.3665612069129271 0 0 0
3109 124 1 0 6.465311856900309 11.513758538650997 -0.8126716983828145 0 0 0
3162 177 1 0 6.458865852831936 12.90191216577124 -0.5553837651322648 0 0 0
3110 125 1 0 8.667096760671166 8.7555483589177 -0.030717624908658075 0 0 0
3111 126 1 0 7.667759527233662 9.40522569209646 -0.7989602262584735 0 0 0
3112 127 1 0 7.690508806563756 10.824203363373366 -0.7696103833532442 0 0 0
3113 128 1 0 8.681132084420977 11.459556096767919 0.0030431314995263232 0 0 0
3114 129 1 0 11.016773238718978 8.78261400448997 -0.4509735193703775 0 0 0
3115 130 1 0 9.900894090968182 9.409680226431725 0.134448774501891 0 0 0
3116 131 1 0 9.889296592492558 10.812698404389847 0.22019889389098463 0 0 0
3117 132 1 0 11.025066504249056 11.505788223343053 -0.22281011325630842 0 0 0
3119 134 1 0 12.241052197462547 9.47087759908114 -0.5342432771737731 0 0 0
3120 135 1 0 12.222020069500703 10.81529745289979 -0.13276707775907243 0 0 0
3166 181 1 0 8.73491573001866 12.857968748444645 0.016424225102197283 0 0 0
3170 185 1 0 10.983898606743514 12.779107262768862 -0.8459913897175713 0 0 0
3167 182 1 0 7.504405969538071 13.50777676973943 0.1653690274792181 0 0 0
3168 183 1 0 7.51208043698744 14.915990857948573 0.22813997552184737 0 0 0
3169 184 1 0 8.68190646905889 15.579377187863317 -0.202021577339701 0 0 0
3171 186 1 0 9.773555049763283 13.493205757747806 -0.7010957879807492 0 0 0
3172 187 1 0 9.852116425680258 14.88738673502249 -0.5470079632491011 0 0 0
3173 188 1 0 11.087705767183152 15.510064696770534 -0.2688452466862927 0 0 0
3175 190 1 0 12.207703460796827 13.495645191940852 -0.9757188575916382 0 0 0
3176 191 1 0 12.219932482990998 14.906087954090921 -0.8485761531622443 0 0 0
3118 133 1 0 13.433045690028033 8.747092705225892 -0.33829352068976376 0 0 0
3121 136 1 0 13.384193872655946 11.563193753726779 -0.002986718672262608 0 0 0
3122 137 1 0 15.772081468635447 8.704618095554455 0.15130920553780966 0 0 0
3123 138 1 0 14.570251371787636 9.438704755700616 0.10423064825265861 0 0 0
3124 139 1 0 14.572915395499052 10.851986066645546 0.21159685034382394 0 0 0
3125 140 1 0 15.77043594140981 11.53135106816109 -0.04512513425594852 0 0 0
3126 141 1 0 18.07756237752102 8.733550209318766 -0.482213597461499 0 0 0
3127 142 1 0 16.98206544621807 9.415864026899952 0.08406984084665844 0 0 0
3128 143 1 0 16.96759295138537 10.82932513146946 0.16155769270975273 0 0 0
3129 144 1 0 18.155126905285563 11.519549153126293 -0.08146809073757728 0 0 0
3131 146 1 0 19.26748939270733 9.442304636756365 -0.7347274231808406 0 0 0
3132 147 1 0 19.309181751620763 10.786997799665423 -0.33199246806591787 0 0 0
3174 189 1 0 13.403353395415252 12.84146451766722 -0.6083815349499071 0 0 0
3177 193 1 0 15.765892789315894 12.870188599270337 -0.5189975269031628 0 0 0
3179 197 1 0 18.164591861210113 12.879790703338523 -0.43810423843151347 0 0 0
3178 194 1 0 14.571379868020848 13.607313453173958 -0.47888683775997404 0 0 0
3180 198 1 0 16.967587034237983 13.578741673218012 -0.6671373149669837 0 0 0
3181 199 1 0 16.958556944479657 14.967314139204133 -0.41856998703267273 0 0 0
3182 200 1 0 18.191224200109655 15.657996031777055 -0.41763941488303385 0 0 0
3184 202 1 0 19.38731284051259 13.572575356694065 -0.42321471516268466 0 0 0
3185 203 1 0 19.367132054425806 14.94241547340607 -0.7284441823445075 0 0 0
3130 145 1 0 20.500277766956962 8.753392589613535 -0.6721457402056508 0 0 0
3133 148 1 0 20.519631474115396 11.47438940095918 -0.32710157774201676 0 0 0
3134 149 1 0 22.78997591500411 8.722131352663048 -0.16684857738609382 0 0 0
3135 150 1 0 21.593635297921143 9.403878582599045 -0.07074167722570386 0 0 0
3136 151 1 0 21.615741536683842 10.78830155282297 0.18982661674848852 0 0 0
3137 152 1 0 22.842368172930648 11.477217272198667 0.2592041632456535 0 0 0
3138 153 1 0 25.155480010457616 8.810136366786903 -0.17543506400215378 0 0 0
3139 154 1 0 23.951188961486046 9.437283578990433 -0.468108075631557 0 0 0
3140 155 1 0 23.96659155956705 10.823919765623081 -0.2828441772141103 0 0 0
3141 156 1 0 25.074932873689228 11.52855473426469 -0.7917247731288879 0 0 0
3183 201 1 0 20.56057140953821 12.839226944548939 -0.6616068323939004 0 0 0
3187 205 1 0 22.819210889178667 12.885358900809262 0.16753607883960056 0 0 0
3191 209 1 0 25.083620091915698 12.920961141599166 -0.6272330345102699 0 0 0
3186 204 1 0 20.590491506562397 15.627754572988419 -0.9156550067920339 0 0 0
3188 206 1 0 21.79174945544359 13.508490402273138 -0.5807132725992653 0 0 0
3189 207 1 0 21.793158220399878 14.922878067435105 -0.6444007148169529 0 0 0
3190 208 1 0 22.76900257571599 15.548867512561625 0.16115556147294988 0 0 0
3192 210 1 0 24.068168675675416 13.526499853329387 0.15379327786142533 0 0 0
3193 211 1 0 24.02754721458593 14.930598843786965 0.21653003603418386 0 0 0
3194 212 1 0 25.02859668002991 15.59200217583263 -0.5051162789075664 0 0 0
3205 223 1 0 30.875353623838294 14.84338505887586 -0.6749449783067027 0 0 0
3198 216 1 0 27.352883002943184 15.609697039803578 0.056314776218862134 0 0 0
3152 167 1 0 30.843701852341823 10.830550404670118 0.5270186586402529 0 0 0
3153 168 1 0 31.963505943886116 11.548892484676415 0.08892464667577096 0 0 0
3150 165 1 0 32.002048277189154 8.743110088277392 -0.11977596212921848 0 0 0
3151 166 1 0 30.890483203793107 9.430549295414234 0.38782640628269227 0 0 0
3143 158 1 0 26.34197018757707 9.561432417132261 -0.2697558453364029 0 0 0
3144 159 1 0 26.302304715076843 10.8317347525441 -0.8736769493717561 0 0 0
3196 214 1 0 26.272927847816042 13.614072254439638 -0.9144679052183143 0 0 0
3201 219 1 0 28.556096688231992 14.922440066651419 -0.08739411410628237 0 0 0
3206 224 1 0 31.619898733176385 15.571029404113899 -1.6444200838647645 0 0 0
3195 213 1 0 27.500671895889262 12.931350873072084 -0.8686424936884642 0 0 0
3147 162 1 0 28.72192629617704 9.446980556660035 -0.7049573901684456 0 0 0
3197 215 1 0 26.267297473821035 14.969191227634253 -0.5588927098485826 0 0 0