
     Program PWSCF v.7.3.1 starts on  4Nov2024 at 13:47: 6 

     This program is part of the open-source Quantum ESPRESSO suite
     for quantum simulation of materials; please cite
         "P. Giannozzi et al., J. Phys.:Condens. Matter 21 395502 (2009);
         "P. Giannozzi et al., J. Phys.:Condens. Matter 29 465901 (2017);
         "P. Giannozzi et al., J. Chem. Phys. 152 154105 (2020);
          URL http://www.quantum-espresso.org", 
     in publications or presentations arising from this work. More details at
     http://www.quantum-espresso.org/quote

     Parallel version (MPI), running on     1 processors

     MPI processes distributed on     1 nodes
     14518 MiB available memory on the printing compute node when the environment starts

     Waiting for input...
     Reading input from standard input

     Current dimensions of program PWSCF are:
     Max number of different atomic species (ntypx) = 10
     Max number of k-points (npk) =  40000
     Max angular momentum in pseudopotentials (lmaxx) =  4

     Subspace diagonalization in iterative solution of the eigenvalue problem:
     a serial algorithm will be used


     G-vector sticks info
     --------------------
     sticks:   dense  smooth     PW     G-vecs:    dense   smooth      PW
     Sum         151     151     55                 1243     1243     283

     Using Slab Decomposition



     bravais-lattice index     =            2
     lattice parameter (alat)  =       7.3700  a.u.
     unit-cell volume          =     100.0789 (a.u.)^3
     number of atoms/cell      =            1
     number of atomic types    =            1
     number of electrons       =        10.00
     number of Kohn-Sham states=           10
     kinetic-energy cutoff     =      20.0000  Ry
     charge density cutoff     =      80.0000  Ry
     scf convergence threshold =      1.0E-08
     mixing beta               =       0.7000
     number of iterations used =            8  plain     mixing
     Exchange-correlation=  SLA  PZ   NOGX NOGC
                           (   1   1   0   0   0   0   0)
     Non magnetic calculation with spin-orbit


     celldm(1)=   7.370000  celldm(2)=   0.000000  celldm(3)=   0.000000
     celldm(4)=   0.000000  celldm(5)=   0.000000  celldm(6)=   0.000000

     crystal axes: (cart. coord. in units of alat)
               a(1) = (  -0.500000   0.000000   0.500000 )  
               a(2) = (   0.000000   0.500000   0.500000 )  
               a(3) = (  -0.500000   0.500000   0.000000 )  

     reciprocal axes: (cart. coord. in units 2 pi/alat)
               b(1) = ( -1.000000 -1.000000  1.000000 )  
               b(2) = (  1.000000  1.000000  1.000000 )  
               b(3) = ( -1.000000  1.000000 -1.000000 )  


     PseudoPot. # 1 for Pt read from file:
     /home/dashlander/Desktop/Sem7/CPD/Assignment_3/pseudo/Pt.rel-pz-n-rrkjus.UPF
     MD5 check sum: 4baafe8ec1942611396c7a5466f52249
     Pseudo is Ultrasoft + core correction, Zval = 10.0
     Generated by new atomic code, or converted to UPF format
     Using radial grid of 1277 points,  6 beta functions with: 
                l(1) =   2
                l(2) =   2
                l(3) =   2
                l(4) =   2
                l(5) =   1
                l(6) =   1
     Q(r) pseudized with 0 coefficients 


     atomic species   valence    mass     pseudopotential
     Pt               10.00   195.08400     Pt( 1.00)

     48 Sym. Ops., with inversion, found



   Cartesian axes

     site n.     atom                  positions (alat units)
         1        Pt     tau(   1) = (   0.0000000   0.0000000   0.0000000  )

     number of k points=    35
                       cart. coord. in units 2pi/alat
        k(    1) = (   0.0000000   0.0000000   0.0000000), wk =   0.0013717
        k(    2) = (  -0.1111111   0.1111111  -0.1111111), wk =   0.0109739
        k(    3) = (  -0.2222222   0.2222222  -0.2222222), wk =   0.0109739
        k(    4) = (  -0.3333333   0.3333333  -0.3333333), wk =   0.0109739
        k(    5) = (  -0.4444444   0.4444444  -0.4444444), wk =   0.0109739
        k(    6) = (   0.0000000   0.2222222   0.0000000), wk =   0.0082305
        k(    7) = (  -0.1111111   0.3333333  -0.1111111), wk =   0.0329218
        k(    8) = (  -0.2222222   0.4444444  -0.2222222), wk =   0.0329218
        k(    9) = (  -0.3333333   0.5555556  -0.3333333), wk =   0.0329218
        k(   10) = (   0.5555556  -0.3333333   0.5555556), wk =   0.0329218
        k(   11) = (   0.4444444  -0.2222222   0.4444444), wk =   0.0329218
        k(   12) = (   0.3333333  -0.1111111   0.3333333), wk =   0.0329218
        k(   13) = (   0.2222222  -0.0000000   0.2222222), wk =   0.0164609
        k(   14) = (   0.0000000   0.4444444   0.0000000), wk =   0.0082305
        k(   15) = (  -0.1111111   0.5555556  -0.1111111), wk =   0.0329218
        k(   16) = (  -0.2222222   0.6666667  -0.2222222), wk =   0.0329218
        k(   17) = (   0.6666667  -0.2222222   0.6666667), wk =   0.0329218
        k(   18) = (   0.5555556  -0.1111111   0.5555556), wk =   0.0329218
        k(   19) = (   0.4444444   0.0000000   0.4444444), wk =   0.0164609
        k(   20) = (   0.0000000   0.6666667   0.0000000), wk =   0.0082305
        k(   21) = (  -0.1111111   0.7777778  -0.1111111), wk =   0.0329218
        k(   22) = (   0.7777778  -0.1111111   0.7777778), wk =   0.0329218
        k(   23) = (   0.6666667  -0.0000000   0.6666667), wk =   0.0164609
        k(   24) = (   0.0000000   0.8888889   0.0000000), wk =   0.0082305
        k(   25) = (   0.8888889   0.0000000   0.8888889), wk =   0.0164609
        k(   26) = (  -0.2222222   0.4444444   0.0000000), wk =   0.0329218
        k(   27) = (  -0.3333333   0.5555556  -0.1111111), wk =   0.0658436
        k(   28) = (   0.5555556  -0.3333333   0.7777778), wk =   0.0658436
        k(   29) = (  -0.2222222   0.6666667   0.0000000), wk =   0.0329218
        k(   30) = (   0.6666667  -0.2222222   0.8888889), wk =   0.0658436
        k(   31) = (   0.5555556  -0.1111111   0.7777778), wk =   0.0658436
        k(   32) = (   0.4444444   0.0000000   0.6666667), wk =   0.0329218
        k(   33) = (   0.7777778  -0.1111111   1.0000000), wk =   0.0329218
        k(   34) = (   0.6666667  -0.0000000   0.8888889), wk =   0.0329218
        k(   35) = (   0.5555556  -0.1111111   1.0000000), wk =   0.0329218

     Dense  grid:     1243 G-vectors     FFT dimensions: (  15,  15,  15)

     Estimated max dynamical RAM per process >      11.99 MB

     Check: negative core charge=   -0.000029

     Initial potential from superposition of free atoms

     starting charge       9.9999, renormalised to      10.0000

     negative rho (up, down):  1.043E-04 0.000E+00
     Starting wfcs are   12 randomized atomic wfcs

     total cpu time spent up to now is        0.4 secs

     Self-consistent Calculation

     iteration #  1     ecut=    20.00 Ry     beta= 0.70
     Davidson diagonalization with overlap
     ethr =  1.00E-02,  avg # of iterations =  2.2

     Threshold (ethr) on eigenvalues was too large:
     Diagonalizing with lowered threshold

     Davidson diagonalization with overlap
     ethr =  1.78E-05,  avg # of iterations =  7.7

     negative rho (up, down):  1.943E-04 0.000E+00

     total cpu time spent up to now is        0.9 secs

     total energy              =     -69.45458784 Ry
     estimated scf accuracy    <       0.00430088 Ry

     iteration #  2     ecut=    20.00 Ry     beta= 0.70
     Davidson diagonalization with overlap
     ethr =  4.30E-05,  avg # of iterations =  2.1

     negative rho (up, down):  2.191E-04 0.000E+00

     total cpu time spent up to now is        1.2 secs

     total energy              =     -69.45573032 Ry
     estimated scf accuracy    <       0.00048967 Ry

     iteration #  3     ecut=    20.00 Ry     beta= 0.70
     Davidson diagonalization with overlap
     ethr =  4.90E-06,  avg # of iterations =  2.0

     negative rho (up, down):  2.376E-04 0.000E+00

     total cpu time spent up to now is        1.4 secs

     total energy              =     -69.45580780 Ry
     estimated scf accuracy    <       0.00001494 Ry

     iteration #  4     ecut=    20.00 Ry     beta= 0.70
     Davidson diagonalization with overlap
     ethr =  1.49E-07,  avg # of iterations =  6.3

     negative rho (up, down):  2.377E-04 0.000E+00

     total cpu time spent up to now is        1.6 secs

     total energy              =     -69.45582667 Ry
     estimated scf accuracy    <       0.00000306 Ry

     iteration #  5     ecut=    20.00 Ry     beta= 0.70
     Davidson diagonalization with overlap
     ethr =  3.06E-08,  avg # of iterations =  3.2

     negative rho (up, down):  2.382E-04 0.000E+00

     total cpu time spent up to now is        1.8 secs

     total energy              =     -69.45582696 Ry
     estimated scf accuracy    <       0.00000037 Ry

     iteration #  6     ecut=    20.00 Ry     beta= 0.70
     Davidson diagonalization with overlap
     ethr =  3.75E-09,  avg # of iterations =  4.2

     negative rho (up, down):  2.382E-04 0.000E+00

     total cpu time spent up to now is        2.1 secs

     total energy              =     -69.45582717 Ry
     estimated scf accuracy    <       0.00000005 Ry

     iteration #  7     ecut=    20.00 Ry     beta= 0.70
     Davidson diagonalization with overlap
     ethr =  5.13E-10,  avg # of iterations =  3.5

     negative rho (up, down):  2.382E-04 0.000E+00

     total cpu time spent up to now is        2.3 secs

     total energy              =     -69.45582719 Ry
     estimated scf accuracy    <       0.00000001 Ry

     iteration #  8     ecut=    20.00 Ry     beta= 0.70
     Davidson diagonalization with overlap
     ethr =  1.00E-10,  avg # of iterations =  3.2

     negative rho (up, down):  2.382E-04 0.000E+00

     total cpu time spent up to now is        2.5 secs

     End of self-consistent calculation

          k = 0.0000 0.0000 0.0000 (   169 PWs)   bands (ev):

     7.5643   7.5643  13.7666  13.7666  13.7666  13.7666  14.7561  14.7561
    16.5965  16.5965

          k =-0.1111 0.1111-0.1111 (   153 PWs)   bands (ev):

     8.0575   8.0575  13.7110  13.7110  13.8772  13.8772  14.8700  14.8700
    16.4284  16.4284

          k =-0.2222 0.2222-0.2222 (   150 PWs)   bands (ev):

     9.3054   9.3054  13.6081  13.6081  13.9666  13.9666  15.1562  15.1562
    16.3378  16.3378

          k =-0.3333 0.3333-0.3333 (   153 PWs)   bands (ev):

    10.3416  10.3416  13.7962  13.7962  14.5073  14.5073  14.9195  14.9195
    17.1077  17.1077

          k =-0.4444 0.4444-0.4444 (   147 PWs)   bands (ev):

    10.5297  10.5297  13.6032  13.6032  14.6156  14.6156  16.7319  16.7319
    17.8387  17.8387

          k = 0.0000 0.2222 0.0000 (   161 PWs)   bands (ev):

     8.2224   8.2224  13.5407  13.5407  14.0397  14.0397  14.9519  14.9519
    16.2002  16.2002

          k =-0.1111 0.3333-0.1111 (   154 PWs)   bands (ev):

     9.2509   9.2509  13.2502  13.2502  14.1864  14.1864  15.3151  15.3151
    16.0270  16.0270

          k =-0.2222 0.4444-0.2222 (   151 PWs)   bands (ev):

    10.5007  10.5007  13.4356  13.4356  13.9472  13.9472  15.1702  15.1702
    16.9619  16.9619

          k =-0.3333 0.5556-0.3333 (   151 PWs)   bands (ev):

    10.8971  10.8971  13.5897  13.5897  14.6120  14.6120  15.1356  15.1356
    18.1043  18.1043

          k = 0.5556-0.3333 0.5556 (   158 PWs)   bands (ev):

    10.9207  10.9207  13.5116  13.5116  14.6272  14.6272  15.8248  15.8248
    18.0373  18.0373

          k = 0.4444-0.2222 0.4444 (   151 PWs)   bands (ev):

    10.8894  10.8894  13.6807  13.6807  14.5272  14.5272  14.8895  14.8895
    17.1510  17.1510

          k = 0.3333-0.1111 0.3333 (   150 PWs)   bands (ev):

    10.1618  10.1618  13.3674  13.3674  14.0448  14.0448  15.2496  15.2496
    16.1327  16.1327

          k = 0.2222-0.0000 0.2222 (   157 PWs)   bands (ev):

     8.8256   8.8256  13.4790  13.4790  14.0573  14.0573  15.1328  15.1328
    16.0683  16.0683

          k = 0.0000 0.4444 0.0000 (   149 PWs)   bands (ev):

     9.9065   9.9065  12.7367  12.7367  14.4759  14.4759  15.8572  15.8572
    15.8913  15.8913

          k =-0.1111 0.5556-0.1111 (   149 PWs)   bands (ev):

    10.9152  10.9152  12.4302  12.4302  14.2924  14.2924  16.0325  16.0325
    16.9827  16.9827

          k =-0.2222 0.6667-0.2222 (   149 PWs)   bands (ev):

    11.4731  11.4731  12.8019  12.8019  14.0703  14.0703  15.8003  15.8003
    18.2317  18.2317

          k = 0.6667-0.2222 0.6667 (   155 PWs)   bands (ev):

    11.6795  11.6795  13.0549  13.0549  14.3934  14.3934  15.5559  15.5559
    18.1135  18.1135

          k = 0.5556-0.1111 0.5556 (   155 PWs)   bands (ev):

    11.9245  11.9245  13.2418  13.2418  14.0279  14.0279  15.3726  15.3726
    17.1881  17.1881

          k = 0.4444 0.0000 0.4444 (   152 PWs)   bands (ev):

    11.5106  11.5106  13.1098  13.1098  13.8009  13.8009  15.4192  15.4192
    16.2071  16.2071

          k = 0.0000 0.6667 0.0000 (   153 PWs)   bands (ev):

    11.0188  11.0188  11.8529  11.8529  15.5436  15.5436  17.0766  17.0766
    17.1335  17.1335

          k =-0.1111 0.7778-0.1111 (   154 PWs)   bands (ev):

    11.1776  11.1776  11.7364  11.7364  15.7523  15.7523  17.1609  17.1609
    18.3148  18.3148

          k = 0.7778-0.1111 0.7778 (   148 PWs)   bands (ev):

    11.4880  11.4880  12.2225  12.2225  15.1404  15.1404  16.7490  16.7490
    18.3328  18.3328

          k = 0.6667-0.0000 0.6667 (   142 PWs)   bands (ev):

    11.9979  11.9979  12.9204  12.9204  14.2060  14.2060  16.1495  16.1495
    17.6454  17.6454

          k = 0.0000 0.8889 0.0000 (   150 PWs)   bands (ev):

    10.8004  10.8004  11.3224  11.3224  17.8427  17.8427  17.9672  17.9672
    18.9549  18.9549

          k = 0.8889 0.0000 0.8889 (   150 PWs)   bands (ev):

    10.9635  10.9635  11.4717  11.4717  16.9255  16.9255  17.7069  17.7069
    18.7432  18.7432

          k =-0.2222 0.4444 0.0000 (   150 PWs)   bands (ev):

    10.3872  10.3872  12.8981  12.8981  14.0961  14.0961  15.7596  15.7596
    15.9969  15.9969

          k =-0.3333 0.5556-0.1111 (   149 PWs)   bands (ev):

    11.4474  11.4474  13.1502  13.1502  13.6471  13.6471  15.5674  15.5674
    17.0096  17.0096

          k = 0.5556-0.3333 0.7778 (   152 PWs)   bands (ev):

    11.5901  11.5901  13.1930  13.1930  14.3459  14.3459  15.3701  15.3701
    17.9127  17.9127

          k =-0.2222 0.6667 0.0000 (   150 PWs)   bands (ev):

    11.5379  11.5379  12.1772  12.1772  14.2906  14.2906  16.8918  16.8918
    17.1746  17.1746

          k = 0.6667-0.2222 0.8889 (   153 PWs)   bands (ev):

    11.8820  11.8820  12.5250  12.5250  14.0803  14.0803  16.4923  16.4923
    18.0706  18.0706

          k = 0.5556-0.1111 0.7778 (   149 PWs)   bands (ev):

    12.2585  12.2585  12.7807  12.7807  13.9017  13.9017  16.0503  16.0503
    17.9743  17.9743

          k = 0.4444 0.0000 0.6667 (   151 PWs)   bands (ev):

    12.5770  12.5770  12.9180  12.9180  13.1731  13.1731  16.0584  16.0584
    17.2302  17.2302

          k = 0.7778-0.1111 1.0000 (   153 PWs)   bands (ev):

    11.2790  11.2790  11.7276  11.7276  15.7578  15.7578  17.4473  17.4473
    18.5440  18.5440

          k = 0.6667-0.0000 0.8889 (   151 PWs)   bands (ev):

    11.7068  11.7068  12.2936  12.2936  14.8084  14.8084  16.7087  16.7087
    18.5075  18.5075

          k = 0.5556-0.1111 1.0000 (   151 PWs)   bands (ev):

    12.1839  12.1839  12.8995  12.8995  13.6368  13.6368  16.3077  16.3077
    18.4771  18.4771

     highest occupied level (ev):    18.9549

!    total energy              =     -69.45582720 Ry
     estimated scf accuracy    <          1.8E-10 Ry

     The total energy is the sum of the following terms:
     one-electron contribution =      17.65238216 Ry
     hartree contribution      =       3.67529205 Ry
     xc contribution           =     -28.57370391 Ry
     ewald contribution        =     -62.20979750 Ry

     convergence has been achieved in   8 iterations

     negative rho (up, down):  2.382E-04 0.000E+00

     Forces acting on atoms (cartesian axes, Ry/au):

     atom    1 type  1   force =     0.00000000    0.00000000    0.00000000

     Total force =     0.000000     Total SCF correction =     0.000000


     Computing stress (Cartesian axis) and pressure


     negative rho (up, down):  2.382E-04 0.000E+00
          total   stress  (Ry/bohr**3)                   (kbar)     P=      121.91
   0.00082875  -0.00000000  -0.00000000          121.91       -0.00       -0.00
  -0.00000000   0.00082875   0.00000000           -0.00      121.91        0.00
  -0.00000000   0.00000000   0.00082875           -0.00        0.00      121.91


     Writing all to output data dir ./platinum.save/ :
     XML data file, charge density, pseudopotentials, collected wavefunctions

     init_run     :      0.23s CPU      0.27s WALL (       1 calls)
     electrons    :      1.90s CPU      2.16s WALL (       1 calls)
     forces       :      0.04s CPU      0.04s WALL (       1 calls)
     stress       :      0.15s CPU      0.15s WALL (       1 calls)

     Called by init_run:
     wfcinit      :      0.04s CPU      0.07s WALL (       1 calls)
     potinit      :      0.01s CPU      0.01s WALL (       1 calls)
     hinit0       :      0.16s CPU      0.17s WALL (       1 calls)

     Called by electrons:
     c_bands      :      1.51s CPU      1.73s WALL (       9 calls)
     sum_band     :      0.30s CPU      0.34s WALL (       9 calls)
     v_of_rho     :      0.00s CPU      0.00s WALL (       9 calls)
     newd         :      0.10s CPU      0.10s WALL (       9 calls)
     mix_rho      :      0.00s CPU      0.00s WALL (       9 calls)

     Called by c_bands:
     init_us_2    :      0.02s CPU      0.03s WALL (     735 calls)
     cegterg      :      1.42s CPU      1.63s WALL (     315 calls)

     Called by *egterg:
     cdiaghg      :      0.09s CPU      0.11s WALL (    1483 calls)
     h_psi        :      0.82s CPU      0.96s WALL (    1553 calls)
     s_psi        :      0.13s CPU      0.15s WALL (    1553 calls)
     g_psi        :      0.01s CPU      0.02s WALL (    1203 calls)

     Called by h_psi:
     h_psi:calbec :      0.10s CPU      0.12s WALL (    1553 calls)
     vloc_psi     :      0.58s CPU      0.68s WALL (    1553 calls)
     add_vuspsi   :      0.13s CPU      0.15s WALL (    1553 calls)

     General routines
     calbec       :      0.14s CPU      0.16s WALL (    2043 calls)
     fft          :      0.02s CPU      0.03s WALL (      99 calls)
     ffts         :      0.00s CPU      0.00s WALL (      36 calls)
     fftw         :      0.43s CPU      0.51s WALL (   51700 calls)

     Parallel routines

     PWSCF        :      2.43s CPU      2.73s WALL


   This run was terminated on:  13:47: 9   4Nov2024            

=------------------------------------------------------------------------------=
   JOB DONE.
=------------------------------------------------------------------------------=
