
     Program PWSCF v.7.3.1 starts on  4Nov2024 at 22: 0:26 

     This program is part of the open-source Quantum ESPRESSO suite
     for quantum simulation of materials; please cite
         "P. Giannozzi et al., J. Phys.:Condens. Matter 21 395502 (2009);
         "P. Giannozzi et al., J. Phys.:Condens. Matter 29 465901 (2017);
         "P. Giannozzi et al., J. Chem. Phys. 152 154105 (2020);
          URL http://www.quantum-espresso.org", 
     in publications or presentations arising from this work. More details at
     http://www.quantum-espresso.org/quote

     Parallel version (MPI), running on     1 processors

     MPI processes distributed on     1 nodes
     11911 MiB available memory on the printing compute node when the environment starts

     Waiting for input...
     Reading input from standard input

     Current dimensions of program PWSCF are:
     Max number of different atomic species (ntypx) = 10
     Max number of k-points (npk) =  40000
     Max angular momentum in pseudopotentials (lmaxx) =  4

     Subspace diagonalization in iterative solution of the eigenvalue problem:
     a serial algorithm will be used


     G-vector sticks info
     --------------------
     sticks:   dense  smooth     PW     G-vecs:    dense   smooth      PW
     Sum         151     151     55                 1139     1139     283

     Using Slab Decomposition



     bravais-lattice index     =            2
     lattice parameter (alat)  =       7.2200  a.u.
     unit-cell volume          =      94.0918 (a.u.)^3
     number of atoms/cell      =            1
     number of atomic types    =            1
     number of electrons       =        10.00
     number of Kohn-Sham states=           10
     kinetic-energy cutoff     =      20.0000  Ry
     charge density cutoff     =      80.0000  Ry
     scf convergence threshold =      1.0E-08
     mixing beta               =       0.7000
     number of iterations used =            8  plain     mixing
     Exchange-correlation=  SLA  PZ   NOGX NOGC
                           (   1   1   0   0   0   0   0)
     Non magnetic calculation with spin-orbit


     celldm(1)=   7.220000  celldm(2)=   0.000000  celldm(3)=   0.000000
     celldm(4)=   0.000000  celldm(5)=   0.000000  celldm(6)=   0.000000

     crystal axes: (cart. coord. in units of alat)
               a(1) = (  -0.500000   0.000000   0.500000 )  
               a(2) = (   0.000000   0.500000   0.500000 )  
               a(3) = (  -0.500000   0.500000   0.000000 )  

     reciprocal axes: (cart. coord. in units 2 pi/alat)
               b(1) = ( -1.000000 -1.000000  1.000000 )  
               b(2) = (  1.000000  1.000000  1.000000 )  
               b(3) = ( -1.000000  1.000000 -1.000000 )  


     PseudoPot. # 1 for Pt read from file:
     /home/dashlander/Desktop/Sem7/CPD/Assignment_3/pseudo/Pt.rel-pz-n-rrkjus.UPF
     MD5 check sum: 4baafe8ec1942611396c7a5466f52249
     Pseudo is Ultrasoft + core correction, Zval = 10.0
     Generated by new atomic code, or converted to UPF format
     Using radial grid of 1277 points,  6 beta functions with: 
                l(1) =   2
                l(2) =   2
                l(3) =   2
                l(4) =   2
                l(5) =   1
                l(6) =   1
     Q(r) pseudized with 0 coefficients 


     atomic species   valence    mass     pseudopotential
     Pt               10.00   195.08400     Pt( 1.00)

     48 Sym. Ops., with inversion, found



   Cartesian axes

     site n.     atom                  positions (alat units)
         1        Pt     tau(   1) = (   0.0000000   0.0000000   0.0000000  )

     number of k points=    35
                       cart. coord. in units 2pi/alat
        k(    1) = (   0.0000000   0.0000000   0.0000000), wk =   0.0013717
        k(    2) = (  -0.1111111   0.1111111  -0.1111111), wk =   0.0109739
        k(    3) = (  -0.2222222   0.2222222  -0.2222222), wk =   0.0109739
        k(    4) = (  -0.3333333   0.3333333  -0.3333333), wk =   0.0109739
        k(    5) = (  -0.4444444   0.4444444  -0.4444444), wk =   0.0109739
        k(    6) = (   0.0000000   0.2222222   0.0000000), wk =   0.0082305
        k(    7) = (  -0.1111111   0.3333333  -0.1111111), wk =   0.0329218
        k(    8) = (  -0.2222222   0.4444444  -0.2222222), wk =   0.0329218
        k(    9) = (  -0.3333333   0.5555556  -0.3333333), wk =   0.0329218
        k(   10) = (   0.5555556  -0.3333333   0.5555556), wk =   0.0329218
        k(   11) = (   0.4444444  -0.2222222   0.4444444), wk =   0.0329218
        k(   12) = (   0.3333333  -0.1111111   0.3333333), wk =   0.0329218
        k(   13) = (   0.2222222  -0.0000000   0.2222222), wk =   0.0164609
        k(   14) = (   0.0000000   0.4444444   0.0000000), wk =   0.0082305
        k(   15) = (  -0.1111111   0.5555556  -0.1111111), wk =   0.0329218
        k(   16) = (  -0.2222222   0.6666667  -0.2222222), wk =   0.0329218
        k(   17) = (   0.6666667  -0.2222222   0.6666667), wk =   0.0329218
        k(   18) = (   0.5555556  -0.1111111   0.5555556), wk =   0.0329218
        k(   19) = (   0.4444444   0.0000000   0.4444444), wk =   0.0164609
        k(   20) = (   0.0000000   0.6666667   0.0000000), wk =   0.0082305
        k(   21) = (  -0.1111111   0.7777778  -0.1111111), wk =   0.0329218
        k(   22) = (   0.7777778  -0.1111111   0.7777778), wk =   0.0329218
        k(   23) = (   0.6666667  -0.0000000   0.6666667), wk =   0.0164609
        k(   24) = (   0.0000000   0.8888889   0.0000000), wk =   0.0082305
        k(   25) = (   0.8888889   0.0000000   0.8888889), wk =   0.0164609
        k(   26) = (  -0.2222222   0.4444444   0.0000000), wk =   0.0329218
        k(   27) = (  -0.3333333   0.5555556  -0.1111111), wk =   0.0658436
        k(   28) = (   0.5555556  -0.3333333   0.7777778), wk =   0.0658436
        k(   29) = (  -0.2222222   0.6666667   0.0000000), wk =   0.0329218
        k(   30) = (   0.6666667  -0.2222222   0.8888889), wk =   0.0658436
        k(   31) = (   0.5555556  -0.1111111   0.7777778), wk =   0.0658436
        k(   32) = (   0.4444444   0.0000000   0.6666667), wk =   0.0329218
        k(   33) = (   0.7777778  -0.1111111   1.0000000), wk =   0.0329218
        k(   34) = (   0.6666667  -0.0000000   0.8888889), wk =   0.0329218
        k(   35) = (   0.5555556  -0.1111111   1.0000000), wk =   0.0329218

     Dense  grid:     1139 G-vectors     FFT dimensions: (  15,  15,  15)

     Estimated max dynamical RAM per process >      11.14 MB

     Check: negative core charge=   -0.000038

     Initial potential from superposition of free atoms

     starting charge       9.9999, renormalised to      10.0000

     negative rho (up, down):  1.225E-04 0.000E+00
     Starting wfcs are   12 randomized atomic wfcs

     total cpu time spent up to now is        0.4 secs

     Self-consistent Calculation

     iteration #  1     ecut=    20.00 Ry     beta= 0.70
     Davidson diagonalization with overlap
     ethr =  1.00E-02,  avg # of iterations =  2.3

     Threshold (ethr) on eigenvalues was too large:
     Diagonalizing with lowered threshold

     Davidson diagonalization with overlap
     c_bands:  1 eigenvalues not converged
     ethr =  1.29E-05,  avg # of iterations =  8.1

     negative rho (up, down):  2.176E-04 0.000E+00

     total cpu time spent up to now is        0.9 secs

     total energy              =     -69.44465875 Ry
     estimated scf accuracy    <       0.00450284 Ry

     iteration #  2     ecut=    20.00 Ry     beta= 0.70
     Davidson diagonalization with overlap
     ethr =  4.50E-05,  avg # of iterations =  2.1

     negative rho (up, down):  2.444E-04 0.000E+00

     total cpu time spent up to now is        1.1 secs

     total energy              =     -69.44583313 Ry
     estimated scf accuracy    <       0.00044258 Ry

     iteration #  3     ecut=    20.00 Ry     beta= 0.70
     Davidson diagonalization with overlap
     ethr =  4.43E-06,  avg # of iterations =  2.3

     negative rho (up, down):  2.634E-04 0.000E+00

     total cpu time spent up to now is        1.3 secs

     total energy              =     -69.44590553 Ry
     estimated scf accuracy    <       0.00001378 Ry

     iteration #  4     ecut=    20.00 Ry     beta= 0.70
     Davidson diagonalization with overlap
     ethr =  1.38E-07,  avg # of iterations =  6.4

     negative rho (up, down):  2.635E-04 0.000E+00

     total cpu time spent up to now is        1.6 secs

     total energy              =     -69.44592317 Ry
     estimated scf accuracy    <       0.00000202 Ry

     iteration #  5     ecut=    20.00 Ry     beta= 0.70
     Davidson diagonalization with overlap
     ethr =  2.02E-08,  avg # of iterations =  3.0

     negative rho (up, down):  2.643E-04 0.000E+00

     total cpu time spent up to now is        1.8 secs

     total energy              =     -69.44592325 Ry
     estimated scf accuracy    <       0.00000038 Ry

     iteration #  6     ecut=    20.00 Ry     beta= 0.70
     Davidson diagonalization with overlap
     ethr =  3.83E-09,  avg # of iterations =  3.2

     negative rho (up, down):  2.644E-04 0.000E+00

     total cpu time spent up to now is        2.0 secs

     total energy              =     -69.44592341 Ry
     estimated scf accuracy    <       0.00000003 Ry

     iteration #  7     ecut=    20.00 Ry     beta= 0.70
     Davidson diagonalization with overlap
     ethr =  3.17E-10,  avg # of iterations =  4.2

     negative rho (up, down):  2.643E-04 0.000E+00

     total cpu time spent up to now is        2.2 secs

     End of self-consistent calculation

          k = 0.0000 0.0000 0.0000 (   137 PWs)   bands (ev):

     8.5122   8.5122  15.0418  15.0418  15.0418  15.0418  16.0193  16.0193
    18.0808  18.0808

          k =-0.1111 0.1111-0.1111 (   153 PWs)   bands (ev):

     9.0309   9.0309  14.9706  14.9706  15.1695  15.1695  16.1469  16.1469
    17.8950  17.8950

          k =-0.2222 0.2222-0.2222 (   150 PWs)   bands (ev):

    10.3385  10.3385  14.8416  14.8416  15.2738  15.2738  16.4575  16.4575
    17.8131  17.8131

          k =-0.3333 0.3333-0.3333 (   144 PWs)   bands (ev):

    11.3701  11.3701  15.0787  15.0787  15.8228  15.8228  16.1943  16.1943
    18.6744  18.6744

          k =-0.4444 0.4444-0.4444 (   147 PWs)   bands (ev):

    11.5226  11.5226  14.8602  14.8602  15.8671  15.8671  18.1406  18.1406
    19.4874  19.4874

          k = 0.0000 0.2222 0.0000 (   145 PWs)   bands (ev):

     9.2086   9.2086  14.7775  14.7775  15.3505  15.3505  16.2444  16.2444
    17.6247  17.6247

          k =-0.1111 0.3333-0.1111 (   143 PWs)   bands (ev):

    10.2906  10.2906  14.4433  14.4433  15.5146  15.5146  16.6428  16.6428
    17.4415  17.4415

          k =-0.2222 0.4444-0.2222 (   145 PWs)   bands (ev):

    11.5654  11.5654  14.6551  14.6551  15.2261  15.2261  16.4791  16.4791
    18.5022  18.5022

          k =-0.3333 0.5556-0.3333 (   147 PWs)   bands (ev):

    11.9246  11.9246  14.8309  14.8309  15.9009  15.9009  16.4471  16.4471
    19.7763  19.7763

          k = 0.5556-0.3333 0.5556 (   142 PWs)   bands (ev):

    11.9392  11.9392  14.7443  14.7443  15.8933  15.8933  17.1959  17.1959
    19.6978  19.6978

          k = 0.4444-0.2222 0.4444 (   146 PWs)   bands (ev):

    11.9343  11.9343  14.9421  14.9421  15.8238  15.8238  16.1703  16.1703
    18.7016  18.7016

          k = 0.3333-0.1111 0.3333 (   145 PWs)   bands (ev):

    11.2336  11.2336  14.5755  14.5755  15.3477  15.3477  16.5633  16.5633
    17.5658  17.5658

          k = 0.2222-0.0000 0.2222 (   145 PWs)   bands (ev):

     9.8445   9.8445  14.7013  14.7013  15.3726  15.3726  16.4400  16.4400
    17.4876  17.4876

          k = 0.0000 0.4444 0.0000 (   149 PWs)   bands (ev):

    10.9702  10.9702  13.8686  13.8686  15.8342  15.8342  17.2653  17.2653
    17.2704  17.2704

          k =-0.1111 0.5556-0.1111 (   141 PWs)   bands (ev):

    11.9957  11.9957  13.5317  13.5317  15.6022  15.6022  17.4529  17.4529
    18.5255  18.5255

          k =-0.2222 0.6667-0.2222 (   143 PWs)   bands (ev):

    12.5279  12.5279  13.9401  13.9401  15.3481  15.3481  17.1942  17.1942
    19.9200  19.9200

          k = 0.6667-0.2222 0.6667 (   138 PWs)   bands (ev):

    12.7428  12.7428  14.2126  14.2126  15.6834  15.6834  16.9179  16.9179
    19.7822  19.7822

          k = 0.5556-0.1111 0.5556 (   138 PWs)   bands (ev):

    13.0293  13.0293  14.4291  14.4291  15.2685  15.2685  16.7300  16.7300
    18.7369  18.7369

          k = 0.4444 0.0000 0.4444 (   144 PWs)   bands (ev):

    12.6463  12.6463  14.2895  14.2895  15.0378  15.0378  16.7827  16.7827
    17.6345  17.6345

          k = 0.0000 0.6667 0.0000 (   141 PWs)   bands (ev):

    12.0451  12.0451  12.8936  12.8936  16.9756  16.9756  18.6121  18.6121
    18.7109  18.7109

          k =-0.1111 0.7778-0.1111 (   139 PWs)   bands (ev):

    12.1774  12.1774  12.7692  12.7692  17.1757  17.1757  18.7188  18.7188
    20.0035  20.0035

          k = 0.7778-0.1111 0.7778 (   140 PWs)   bands (ev):

    12.4999  12.4999  13.3052  13.3052  16.4948  16.4948  18.2579  18.2579
    20.0119  20.0119

          k = 0.6667-0.0000 0.6667 (   142 PWs)   bands (ev):

    13.0634  13.0634  14.0782  14.0782  15.4630  15.4630  17.5973  17.5973
    19.2369  19.2369

          k = 0.0000 0.8889 0.0000 (   142 PWs)   bands (ev):

    11.7529  11.7529  12.3135  12.3135  19.5136  19.5136  19.6364  19.6364
    20.5303  20.5303

          k = 0.8889 0.0000 0.8889 (   138 PWs)   bands (ev):

    11.9251  11.9251  12.4799  12.4799  18.4448  18.4448  19.3477  19.3477
    20.4495  20.4495

          k =-0.2222 0.4444 0.0000 (   143 PWs)   bands (ev):

    11.4774  11.4774  14.0491  14.0491  15.3903  15.3903  17.1411  17.1411
    17.4180  17.4180

          k =-0.3333 0.5556-0.1111 (   143 PWs)   bands (ev):

    12.5466  12.5466  14.3385  14.3385  14.8666  14.8666  16.9383  16.9383
    18.5415  18.5415

          k = 0.5556-0.3333 0.7778 (   140 PWs)   bands (ev):

    12.6603  12.6603  14.3656  14.3656  15.6314  15.6314  16.7065  16.7065
    19.5542  19.5542

          k =-0.2222 0.6667 0.0000 (   141 PWs)   bands (ev):

    12.6053  12.6053  13.2536  13.2536  15.5870  15.5870  18.4172  18.4172
    18.7251  18.7251

          k = 0.6667-0.2222 0.8889 (   141 PWs)   bands (ev):

    12.9426  12.9426  13.6355  13.6355  15.3453  15.3453  17.9641  17.9641
    19.7276  19.7276

          k = 0.5556-0.1111 0.7778 (   143 PWs)   bands (ev):

    13.3540  13.3540  13.9173  13.9173  15.1388  15.1388  17.4711  17.4711
    19.6173  19.6173

          k = 0.4444 0.0000 0.6667 (   144 PWs)   bands (ev):

    13.7489  13.7489  14.0782  14.0782  14.3138  14.3138  17.4870  17.4870
    18.7840  18.7840

          k = 0.7778-0.1111 1.0000 (   137 PWs)   bands (ev):

    12.2709  12.2709  12.7619  12.7619  17.1697  17.1697  19.0410  19.0410
    20.2456  20.2456

          k = 0.6667-0.0000 0.8889 (   140 PWs)   bands (ev):

    12.7319  12.7319  13.3866  13.3866  16.1289  16.1289  18.2076  18.2076
    20.2115  20.2115

          k = 0.5556-0.1111 1.0000 (   147 PWs)   bands (ev):

    13.2510  13.2510  14.0585  14.0585  14.8473  14.8473  17.7537  17.7537
    20.1817  20.1817

     highest occupied level (ev):    20.5303

!    total energy              =     -69.44592343 Ry
     estimated scf accuracy    <          3.9E-09 Ry

     The total energy is the sum of the following terms:
     one-electron contribution =      19.36680058 Ry
     hartree contribution      =       3.34650383 Ry
     xc contribution           =     -28.65698301 Ry
     ewald contribution        =     -63.50224483 Ry

     convergence has been achieved in   7 iterations

     negative rho (up, down):  2.643E-04 0.000E+00

     Forces acting on atoms (cartesian axes, Ry/au):

     atom    1 type  1   force =     0.00000000    0.00000000    0.00000000

     Total force =     0.000000     Total SCF correction =     0.000000


     Computing stress (Cartesian axis) and pressure


     negative rho (up, down):  2.643E-04 0.000E+00
          total   stress  (Ry/bohr**3)                   (kbar)     P=      371.37
   0.00252454  -0.00000000  -0.00000000          371.37       -0.00       -0.00
  -0.00000000   0.00252454   0.00000000           -0.00      371.37        0.00
  -0.00000000   0.00000000   0.00252454           -0.00        0.00      371.37


     Writing all to output data dir ./platinum.save/ :
     XML data file, charge density, pseudopotentials, collected wavefunctions

     init_run     :      0.25s CPU      0.27s WALL (       1 calls)
     electrons    :      1.61s CPU      1.84s WALL (       1 calls)
     forces       :      0.04s CPU      0.04s WALL (       1 calls)
     stress       :      0.14s CPU      0.14s WALL (       1 calls)

     Called by init_run:
     wfcinit      :      0.07s CPU      0.07s WALL (       1 calls)
     potinit      :      0.01s CPU      0.01s WALL (       1 calls)
     hinit0       :      0.16s CPU      0.17s WALL (       1 calls)

     Called by electrons:
     c_bands      :      1.27s CPU      1.47s WALL (       8 calls)
     sum_band     :      0.26s CPU      0.29s WALL (       8 calls)
     v_of_rho     :      0.00s CPU      0.00s WALL (       8 calls)
     newd         :      0.08s CPU      0.09s WALL (       8 calls)
     mix_rho      :      0.00s CPU      0.00s WALL (       8 calls)

     Called by c_bands:
     init_us_2    :      0.02s CPU      0.02s WALL (     665 calls)
     cegterg      :      1.20s CPU      1.39s WALL (     280 calls)

     Called by *egterg:
     cdiaghg      :      0.08s CPU      0.09s WALL (    1352 calls)
     h_psi        :      0.73s CPU      0.85s WALL (    1422 calls)
     s_psi        :      0.11s CPU      0.13s WALL (    1422 calls)
     g_psi        :      0.01s CPU      0.01s WALL (    1107 calls)

     Called by h_psi:
     h_psi:calbec :      0.09s CPU      0.10s WALL (    1422 calls)
     vloc_psi     :      0.52s CPU      0.60s WALL (    1422 calls)
     add_vuspsi   :      0.11s CPU      0.13s WALL (    1422 calls)

     General routines
     calbec       :      0.12s CPU      0.14s WALL (    1877 calls)
     fft          :      0.02s CPU      0.03s WALL (      89 calls)
     ffts         :      0.00s CPU      0.00s WALL (      32 calls)
     fftw         :      0.39s CPU      0.45s WALL (   46348 calls)

     Parallel routines

     PWSCF        :      2.13s CPU      2.39s WALL


   This run was terminated on:  22: 0:28   4Nov2024            

=------------------------------------------------------------------------------=
   JOB DONE.
=------------------------------------------------------------------------------=
