
     Program BANDS v.7.3.1 starts on  5Nov2024 at 15:50:51 

     This program is part of the open-source Quantum ESPRESSO suite
     for quantum simulation of materials; please cite
         "P. Giannozzi et al., J. Phys.:Condens. Matter 21 395502 (2009);
         "P. Giannozzi et al., J. Phys.:Condens. Matter 29 465901 (2017);
         "P. Giannozzi et al., J. Chem. Phys. 152 154105 (2020);
          URL http://www.quantum-espresso.org", 
     in publications or presentations arising from this work. More details at
     http://www.quantum-espresso.org/quote

     Parallel version (MPI), running on     1 processors

     MPI processes distributed on     1 nodes
     12503 MiB available memory on the printing compute node when the environment starts


     Reading xml data from directory:

     ./MoS2.save/
     file S.pbe-mt_fhi.UPF: wavefunction(s)  4f renormalized
     file Mo.pbe-mt_fhi.UPF: wavefunction(s)  4f renormalized

     IMPORTANT: XC functional enforced from input :
     Exchange-correlation= PBE
                           (   1   4   3   4   0   0   0)
     Any further DFT definition will be discarded
     Please, verify this is what you really want


     G-vector sticks info
     --------------------
     sticks:   dense  smooth     PW     G-vecs:    dense   smooth      PW
     Sum         367     367    121                26935    26935    4693

     Using Slab Decomposition

     Reading collected, re-writing distributed wavefunctions
     high-symmetry point:  0.0000 0.0000 0.0000   x coordinate   0.0000
     high-symmetry point:  0.3333 0.5774 0.0000   x coordinate   0.6667
     high-symmetry point:  0.5000 0.2887 0.0000   x coordinate   1.0000
     high-symmetry point:  0.0000 0.0000 0.0000   x coordinate   1.5774

     Plottable bands (eV) written to file MoS2.bands.dat.gnu
     Bands written to file MoS2.bands.dat

 **************************************************************************

                    xk=(   0.00000,   0.00000,   0.00000  )

     point group D_6h(6/mmm)
     there are 12 classes
     the character table:

       E     2C6   2C3   C2    3C2'  3C2'' i     2S3   2S6   s_h   3s_d  3s_v 
A_1g   1.00  1.00  1.00  1.00  1.00  1.00  1.00  1.00  1.00  1.00  1.00  1.00
A_2g   1.00  1.00  1.00  1.00 -1.00 -1.00  1.00  1.00  1.00  1.00 -1.00 -1.00
B_1g   1.00 -1.00  1.00 -1.00  1.00 -1.00  1.00 -1.00  1.00 -1.00  1.00 -1.00
B_2g   1.00 -1.00  1.00 -1.00 -1.00  1.00  1.00 -1.00  1.00 -1.00 -1.00  1.00
E_1g   2.00  1.00 -1.00 -2.00  0.00  0.00  2.00  1.00 -1.00 -2.00  0.00  0.00
E_2g   2.00 -1.00 -1.00  2.00  0.00  0.00  2.00 -1.00 -1.00  2.00  0.00  0.00
A_1u   1.00  1.00  1.00  1.00  1.00  1.00 -1.00 -1.00 -1.00 -1.00 -1.00 -1.00
A_2u   1.00  1.00  1.00  1.00 -1.00 -1.00 -1.00 -1.00 -1.00 -1.00  1.00  1.00
B_1u   1.00 -1.00  1.00 -1.00  1.00 -1.00 -1.00  1.00 -1.00  1.00 -1.00  1.00
B_2u   1.00 -1.00  1.00 -1.00 -1.00  1.00 -1.00  1.00 -1.00  1.00  1.00 -1.00
E_1u   2.00  1.00 -1.00 -2.00  0.00  0.00 -2.00 -1.00  1.00  2.00  0.00  0.00
E_2u   2.00 -1.00 -1.00  2.00  0.00  0.00 -2.00  1.00  1.00 -2.00  0.00  0.00

     the symmetry operations in each class and the name of the first element:

     E        1
                                                                 
     2C6      5    6
                                                                 
     2C3      7    8
                                                                 
     C2       2
                                                                 
     3C2'     4   12   11
                                                                 
     3C2''    3    9   10
                                                                 
     i       13
                                                                 
     2S3     17   18
                                                                 
     2S6     19   20
                                                                 
     s_h     14
                                                                 
     3s_d    16   24   23
                                                                 
     3s_v    15   21   22
                                                                 

     Band symmetry, D_6h(6/mmm) point group:

     e(  1 -  1) =     -4.05640  eV     1   --> A_1g           
     e(  2 -  2) =     -3.99368  eV     1   --> B_2u           
     e(  3 -  3) =     -2.31185  eV     1   --> B_1g           
     e(  4 -  4) =     -2.12891  eV     1   --> A_2u           
     e(  5 -  5) =      1.58246  eV     1   --> A_1g           
     e(  6 -  6) =      1.96344  eV     1   --> B_2u           
     e(  7 - 10) =      4.87378  eV     4   --> E_2g           
     e(  7 - 10) =      4.87378  eV     4   --> E_1u           
     e( 11 - 11) =      5.56514  eV     1   --> B_1g           
     e( 12 - 13) =      6.01514  eV     2   --> E_1g           
     e( 14 - 15) =      6.01602  eV     2   --> E_2u           
     e( 16 - 16) =      6.14821  eV     1   --> A_1g           
     e( 17 - 17) =      7.29857  eV     1   --> A_2u           
     e( 18 - 18) =      7.44763  eV     1   --> B_2u           
     e( 19 - 20) =     12.82100  eV     2   --> E_1g           
     e( 21 - 22) =     12.82903  eV     2   --> E_2u           
     e( 23 - 23) =     13.24405  eV     1   --> A_1g           
     e( 24 - 25) =     13.47043  eV     2   --> E_2g           
     e( 26 - 27) =     13.53450  eV     2   --> E_1u           
     e( 28 - 28) =     13.84528  eV     1   --> B_1g           

 **************************************************************************

 **************************************************************************

                    xk=(   0.00833,   0.01443,   0.00000  )

     point group C_2v (mm2) 
     there are  4 classes
     the character table:

       E     C2    s_v   s_v' 
A_1    1.00  1.00  1.00  1.00
A_2    1.00  1.00 -1.00 -1.00
B_1    1.00 -1.00  1.00 -1.00
B_2    1.00 -1.00 -1.00  1.00

     the symmetry operations in each class and the name of the first element:

     E        1
                                                                 
     C2       2
                                                                 
     s_v      3
                                                                 
     s_v'     4
                                                                 

     Band symmetry, C_2v (mm2)  point group:

     e(  1 -  1) =     -4.05237  eV     1   --> A_1  D_1  S_1  
     e(  2 -  2) =     -3.98965  eV     1   --> B_1  D_3  S_3  
     e(  3 -  3) =     -2.30918  eV     1   --> A_2  D_2  S_2  
     e(  4 -  4) =     -2.12642  eV     1   --> B_2  D_4  S_4  
     e(  5 -  5) =      1.58621  eV     1   --> A_1  D_1  S_1  
     e(  6 -  6) =      1.96700  eV     1   --> B_1  D_3  S_3  
     e(  7 -  7) =      4.86768  eV     1   --> A_1  D_1  S_1  
     e(  8 -  8) =      4.86788  eV     1   --> B_1  D_3  S_3  
     e(  9 - 10) =      4.87790  eV     2   --> A_1  D_1  S_1  
     e(  9 - 10) =      4.87790  eV     2   --> B_1  D_3  S_3  
     e( 11 - 11) =      5.54170  eV     1   --> A_2  D_2  S_2  
     e( 12 - 12) =      5.99982  eV     1   --> B_2  D_4  S_4  
     e( 13 - 13) =      6.01166  eV     1   --> A_2  D_2  S_2  
     e( 14 - 14) =      6.01255  eV     1   --> B_2  D_4  S_4  
     e( 15 - 15) =      6.03954  eV     1   --> A_2  D_2  S_2  
     e( 16 - 16) =      6.14994  eV     1   --> A_1  D_1  S_1  
     e( 17 - 17) =      7.31442  eV     1   --> B_2  D_4  S_4  
     e( 18 - 18) =      7.44764  eV     1   --> B_1  D_3  S_3  
     e( 19 - 19) =     12.80401  eV     1   --> B_2  D_4  S_4  
     e( 20 - 20) =     12.81189  eV     1   --> A_2  D_2  S_2  
     e( 21 - 21) =     12.82544  eV     1   --> A_2  D_2  S_2  
     e( 22 - 22) =     12.83314  eV     1   --> B_2  D_4  S_4  
     e( 23 - 23) =     13.22778  eV     1   --> A_1  D_1  S_1  
     e( 24 - 24) =     13.44268  eV     1   --> B_1  D_3  S_3  
     e( 25 - 25) =     13.45509  eV     1   --> A_1  D_1  S_1  
     e( 26 - 26) =     13.51984  eV     1   --> B_1  D_3  S_3  
     e( 27 - 27) =     13.52315  eV     1   --> A_1  D_1  S_1  
     e( 28 - 28) =     13.85105  eV     1   --> A_2  D_2  S_2  

 **************************************************************************

 **************************************************************************

                    xk=(   0.01667,   0.02887,   0.00000  )

     Band symmetry, C_2v (mm2)  point group:

     e(  1 -  1) =     -4.04012  eV     1   --> A_1  D_1  S_1  
     e(  2 -  2) =     -3.97746  eV     1   --> B_1  D_3  S_3  
     e(  3 -  3) =     -2.30110  eV     1   --> A_2  D_2  S_2  
     e(  4 -  4) =     -2.11881  eV     1   --> B_2  D_4  S_4  
     e(  5 -  5) =      1.59745  eV     1   --> A_1  D_1  S_1  
     e(  6 -  6) =      1.97770  eV     1   --> B_1  D_3  S_3  
     e(  7 -  7) =      4.84963  eV     1   --> A_1  D_1  S_1  
     e(  8 -  8) =      4.85045  eV     1   --> B_1  D_3  S_3  
     e(  9 - 10) =      4.89029  eV     2   --> A_1  D_1  S_1  
     e(  9 - 10) =      4.89029  eV     2   --> B_1  D_3  S_3  
     e( 11 - 11) =      5.48213  eV     1   --> A_2  D_2  S_2  
     e( 12 - 12) =      5.95635  eV     1   --> B_2  D_4  S_4  
     e( 13 - 13) =      6.00113  eV     1   --> A_2  D_2  S_2  
     e( 14 - 14) =      6.00204  eV     1   --> B_2  D_4  S_4  
     e( 15 - 15) =      6.09942  eV     1   --> A_2  D_2  S_2  
     e( 16 - 16) =      6.15514  eV     1   --> A_1  D_1  S_1  
     e( 17 - 17) =      7.35957  eV     1   --> B_2  D_4  S_4  
     e( 18 - 18) =      7.44767  eV     1   --> B_1  D_3  S_3  
     e( 19 - 19) =     12.75491  eV     1   --> B_2  D_4  S_4  
     e( 20 - 20) =     12.76358  eV     1   --> A_2  D_2  S_2  
     e( 21 - 21) =     12.83646  eV     1   --> A_2  D_2  S_2  
     e( 22 - 22) =     12.84460  eV     1   --> B_2  D_4  S_4  
     e( 23 - 23) =     13.17095  eV     1   --> A_1  D_1  S_1  
     e( 24 - 24) =     13.36320  eV     1   --> B_1  D_3  S_3  
     e( 25 - 25) =     13.40761  eV     1   --> A_1  D_1  S_1  
     e( 26 - 26) =     13.47544  eV     1   --> B_1  D_3  S_3  
     e( 27 - 27) =     13.50339  eV     1   --> A_1  D_1  S_1  
     e( 28 - 28) =     13.86824  eV     1   --> A_2  D_2  S_2  

 **************************************************************************

 **************************************************************************

                    xk=(   0.02500,   0.04330,   0.00000  )

     Band symmetry, C_2v (mm2)  point group:

     e(  1 -  1) =     -4.01992  eV     1   --> A_1  D_1  S_1  
     e(  2 -  2) =     -3.95718  eV     1   --> B_1  D_3  S_3  
     e(  3 -  3) =     -2.28762  eV     1   --> A_2  D_2  S_2  
     e(  4 -  4) =     -2.10614  eV     1   --> B_2  D_4  S_4  
     e(  5 -  5) =      1.61608  eV     1   --> A_1  D_1  S_1  
     e(  6 -  6) =      1.99542  eV     1   --> B_1  D_3  S_3  
     e(  7 -  7) =      4.82001  eV     1   --> A_1  D_1  S_1  
     e(  8 -  8) =      4.82176  eV     1   --> B_1  D_3  S_3  
     e(  9 - 10) =      4.91094  eV     2   --> A_1  D_1  S_1  
     e(  9 - 10) =      4.91094  eV     2   --> B_1  D_3  S_3  
     e( 11 - 11) =      5.40338  eV     1   --> A_2  D_2  S_2  
     e( 12 - 12) =      5.89024  eV     1   --> B_2  D_4  S_4  
     e( 13 - 13) =      5.98346  eV     1   --> A_2  D_2  S_2  
     e( 14 - 14) =      5.98439  eV     1   --> B_2  D_4  S_4  
     e( 15 - 15) =      6.16366  eV     1   --> A_1  D_1  S_1  
     e( 16 - 16) =      6.17886  eV     1   --> A_2  D_2  S_2  
     e( 17 - 17) =      7.42823  eV     1   --> B_2  D_4  S_4  
     e( 18 - 18) =      7.44753  eV     1   --> B_1  D_3  S_3  
     e( 19 - 19) =     12.67694  eV     1   --> B_2  D_4  S_4  
     e( 20 - 20) =     12.68626  eV     1   --> A_2  D_2  S_2  
     e( 21 - 21) =     12.85425  eV     1   --> A_2  D_2  S_2  
     e( 22 - 22) =     12.86324  eV     1   --> B_2  D_4  S_4  
     e( 23 - 23) =     13.06328  eV     1   --> A_1  D_1  S_1  
     e( 24 - 24) =     13.24055  eV     1   --> B_1  D_3  S_3  
     e( 25 - 25) =     13.32655  eV     1   --> A_1  D_1  S_1  
     e( 26 - 26) =     13.40147  eV     1   --> B_1  D_3  S_3  
     e( 27 - 27) =     13.49842  eV     1   --> A_1  D_1  S_1  
     e( 28 - 28) =     13.89661  eV     1   --> A_2  D_2  S_2  

 **************************************************************************

 **************************************************************************

                    xk=(   0.03333,   0.05774,   0.00000  )

     Band symmetry, C_2v (mm2)  point group:

     e(  1 -  1) =     -3.99153  eV     1   --> A_1  D_1  S_1  
     e(  2 -  2) =     -3.92875  eV     1   --> B_1  D_3  S_3  
     e(  3 -  3) =     -2.26877  eV     1   --> A_2  D_2  S_2  
     e(  4 -  4) =     -2.08846  eV     1   --> B_2  D_4  S_4  
     e(  5 -  5) =      1.64198  eV     1   --> A_1  D_1  S_1  
     e(  6 -  6) =      2.01998  eV     1   --> B_1  D_3  S_3  
     e(  7 -  7) =      4.77975  eV     1   --> A_1  D_1  S_1  
     e(  8 -  8) =      4.78273  eV     1   --> B_1  D_3  S_3  
     e(  9 - 10) =      4.93978  eV     2   --> A_1  D_1  S_1  
     e(  9 - 10) =      4.93978  eV     2   --> B_1  D_3  S_3  
     e( 11 - 11) =      5.31575  eV     1   --> A_2  D_2  S_2  
     e( 12 - 12) =      5.80819  eV     1   --> B_2  D_4  S_4  
     e( 13 - 13) =      5.95861  eV     1   --> A_2  D_2  S_2  
     e( 14 - 14) =      5.95960  eV     1   --> B_2  D_4  S_4  
     e( 15 - 15) =      6.17534  eV     1   --> A_1  D_1  S_1  
     e( 16 - 16) =      6.26777  eV     1   --> A_2  D_2  S_2  
     e( 17 - 17) =      7.44699  eV     1   --> B_1  D_3  S_3  
     e( 18 - 18) =      7.51364  eV     1   --> B_2  D_4  S_4  
     e( 19 - 19) =     12.57482  eV     1   --> B_2  D_4  S_4  
     e( 20 - 20) =     12.58441  eV     1   --> A_2  D_2  S_2  
     e( 21 - 21) =     12.87745  eV     1   --> A_2  D_2  S_2  
     e( 22 - 22) =     12.88858  eV     1   --> B_2  D_4  S_4  
     e( 23 - 23) =     12.91038  eV     1   --> A_1  D_1  S_1  
     e( 24 - 24) =     13.08453  eV     1   --> B_1  D_3  S_3  
     e( 25 - 25) =     13.21527  eV     1   --> A_1  D_1  S_1  
     e( 26 - 26) =     13.29923  eV     1   --> B_1  D_3  S_3  
     e( 27 - 27) =     13.51265  eV     1   --> A_1  D_1  S_1  
     e( 28 - 28) =     13.93595  eV     1   --> A_2  D_2  S_2  

 **************************************************************************

 **************************************************************************

                    xk=(   0.04167,   0.07217,   0.00000  )

     Band symmetry, C_2v (mm2)  point group:

     e(  1 -  1) =     -3.95517  eV     1   --> A_1  D_1  S_1  
     e(  2 -  2) =     -3.89236  eV     1   --> B_1  D_3  S_3  
     e(  3 -  3) =     -2.24477  eV     1   --> A_2  D_2  S_2  
     e(  4 -  4) =     -2.06589  eV     1   --> B_2  D_4  S_4  
     e(  5 -  5) =      1.67490  eV     1   --> A_1  D_1  S_1  
     e(  6 -  6) =      2.05109  eV     1   --> B_1  D_3  S_3  
     e(  7 -  7) =      4.72964  eV     1   --> A_1  D_1  S_1  
     e(  8 -  8) =      4.73429  eV     1   --> B_1  D_3  S_3  
     e(  9 -  9) =      4.97683  eV     1   -->   ?
     e( 10 - 10) =      4.97694  eV     1   -->   ?
     e( 11 - 11) =      5.22437  eV     1   --> A_2  D_2  S_2  
     e( 12 - 12) =      5.71586  eV     1   --> B_2  D_4  S_4  
     e( 13 - 13) =      5.92614  eV     1   --> A_2  D_2  S_2  
     e( 14 - 14) =      5.92731  eV     1   --> B_2  D_4  S_4  
     e( 15 - 15) =      6.18990  eV     1   --> A_1  D_1  S_1  
     e( 16 - 16) =      6.36122  eV     1   --> A_2  D_2  S_2  
     e( 17 - 17) =      7.44568  eV     1   --> B_1  D_3  S_3  
     e( 18 - 18) =      7.60980  eV     1   --> B_2  D_4  S_4  
     e( 19 - 19) =     12.45396  eV     1   --> B_2  D_4  S_4  
     e( 20 - 20) =     12.46294  eV     1   --> A_2  D_2  S_2  
     e( 21 - 21) =     12.72536  eV     1   --> A_1  D_1  S_1  
     e( 22 - 22) =     12.90408  eV     1   --> B_1  D_3  S_3  
     e( 23 - 23) =     12.90432  eV     1   --> A_2  D_2  S_2  
     e( 24 - 24) =     12.91983  eV     1   --> B_2  D_4  S_4  
     e( 25 - 25) =     13.07788  eV     1   --> A_1  D_1  S_1  
     e( 26 - 26) =     13.17102  eV     1   --> B_1  D_3  S_3  
     e( 27 - 27) =     13.54085  eV     1   --> A_1  D_1  S_1  
     e( 28 - 28) =     13.98618  eV     1   --> A_2  D_2  S_2  

 **************************************************************************

 **************************************************************************

                    xk=(   0.05000,   0.08660,   0.00000  )

     Band symmetry, C_2v (mm2)  point group:

     e(  1 -  1) =     -3.91087  eV     1   --> A_1  D_1  S_1  
     e(  2 -  2) =     -3.84804  eV     1   --> B_1  D_3  S_3  
     e(  3 -  3) =     -2.21556  eV     1   --> A_2  D_2  S_2  
     e(  4 -  4) =     -2.03824  eV     1   --> B_2  D_4  S_4  
     e(  5 -  5) =      1.71456  eV     1   --> A_1  D_1  S_1  
     e(  6 -  6) =      2.08837  eV     1   --> B_1  D_3  S_3  
     e(  7 -  7) =      4.67093  eV     1   --> A_1  D_1  S_1  
     e(  8 -  8) =      4.67772  eV     1   --> B_1  D_3  S_3  
     e(  9 -  9) =      5.02203  eV     1   -->   ?
     e( 10 - 10) =      5.02215  eV     1   -->   ?
     e( 11 - 11) =      5.13197  eV     1   --> A_2  D_2  S_2  
     e( 12 - 12) =      5.61770  eV     1   --> B_2  D_4  S_4  
     e( 13 - 13) =      5.88616  eV     1   --> A_2  D_2  S_2  
     e( 14 - 14) =      5.88753  eV     1   --> B_2  D_4  S_4  
     e( 15 - 15) =      6.20697  eV     1   --> A_1  D_1  S_1  
     e( 16 - 16) =      6.45682  eV     1   --> A_2  D_2  S_2  
     e( 17 - 17) =      7.44309  eV     1   --> B_1  D_3  S_3  
     e( 18 - 18) =      7.71194  eV     1   --> B_2  D_4  S_4  
     e( 19 - 19) =     12.31998  eV     1   --> B_2  D_4  S_4  
     e( 20 - 20) =     12.32668  eV     1   --> A_2  D_2  S_2  
     e( 21 - 21) =     12.51929  eV     1   --> A_1  D_1  S_1  
     e( 22 - 22) =     12.70672  eV     1   --> B_1  D_3  S_3  
     e( 23 - 23) =     12.91816  eV     1   --> A_1  D_1  S_1  
     e( 24 - 24) =     12.93292  eV     1   --> A_2  D_2  S_2  
     e( 25 - 25) =     12.95598  eV     1   --> B_2  D_4  S_4  
     e( 26 - 26) =     13.01997  eV     1   --> B_1  D_3  S_3  
     e( 27 - 27) =     13.57826  eV     1   --> A_1  D_1  S_1  
     e( 28 - 28) =     14.04726  eV     1   --> A_2  D_2  S_2  

 **************************************************************************

 **************************************************************************

                    xk=(   0.05833,   0.10104,   0.00000  )

     Band symmetry, C_2v (mm2)  point group:

     e(  1 -  1) =     -3.85871  eV     1   --> A_1  D_1  S_1  
     e(  2 -  2) =     -3.79585  eV     1   --> B_1  D_3  S_3  
     e(  3 -  3) =     -2.18119  eV     1   --> A_2  D_2  S_2  
     e(  4 -  4) =     -2.00574  eV     1   --> B_2  D_4  S_4  
     e(  5 -  5) =      1.76058  eV     1   --> A_1  D_1  S_1  
     e(  6 -  6) =      2.13136  eV     1   --> B_1  D_3  S_3  
     e(  7 -  7) =      4.60508  eV     1   --> A_1  D_1  S_1  
     e(  8 -  8) =      4.61444  eV     1   --> B_1  D_3  S_3  
     e(  9 -  9) =      5.04022  eV     1   --> A_2  D_2  S_2  
     e( 10 - 10) =      5.07524  eV     1   --> A_1  D_1  S_1  
     e( 11 - 11) =      5.07541  eV     1   --> B_1  D_3  S_3  
     e( 12 - 12) =      5.51687  eV     1   --> B_2  D_4  S_4  
     e( 13 - 13) =      5.83840  eV     1   --> A_2  D_2  S_2  
     e( 14 - 14) =      5.84000  eV     1   --> B_2  D_4  S_4  
     e( 15 - 15) =      6.22616  eV     1   --> A_1  D_1  S_1  
     e( 16 - 16) =      6.55326  eV     1   --> A_2  D_2  S_2  
     e( 17 - 17) =      7.43867  eV     1   --> B_1  D_3  S_3  
     e( 18 - 18) =      7.81627  eV     1   --> B_2  D_4  S_4  
     e( 19 - 19) =     12.17784  eV     1   --> B_2  D_4  S_4  
     e( 20 - 20) =     12.18022  eV     1   --> A_2  D_2  S_2  
     e( 21 - 21) =     12.29987  eV     1   --> A_1  D_1  S_1  
     e( 22 - 22) =     12.49857  eV     1   --> B_1  D_3  S_3  
     e( 23 - 23) =     12.73973  eV     1   --> A_1  D_1  S_1  
     e( 24 - 24) =     12.84968  eV     1   --> B_1  D_3  S_3  
     e( 25 - 25) =     12.96089  eV     1   --> A_2  D_2  S_2  
     e( 26 - 26) =     12.99570  eV     1   --> B_2  D_4  S_4  
     e( 27 - 27) =     13.62196  eV     1   --> A_1  D_1  S_1  
     e( 28 - 28) =     14.11907  eV     1   --> A_2  D_2  S_2  

 **************************************************************************

 **************************************************************************

                    xk=(   0.06667,   0.11547,   0.00000  )

     Band symmetry, C_2v (mm2)  point group:

     e(  1 -  1) =     -3.79885  eV     1   --> A_1  D_1  S_1  
     e(  2 -  2) =     -3.73592  eV     1   --> B_1  D_3  S_3  
     e(  3 -  3) =     -2.14169  eV     1   --> A_2  D_2  S_2  
     e(  4 -  4) =     -1.96846  eV     1   --> B_2  D_4  S_4  
     e(  5 -  5) =      1.81248  eV     1   --> A_1  D_1  S_1  
     e(  6 -  6) =      2.17943  eV     1   --> B_1  D_3  S_3  
     e(  7 -  7) =      4.53356  eV     1   --> A_1  D_1  S_1  
     e(  8 -  8) =      4.54600  eV     1   --> B_1  D_3  S_3  
     e(  9 -  9) =      4.95026  eV     1   --> A_2  D_2  S_2  
     e( 10 - 10) =      5.13636  eV     1   --> A_1  D_1  S_1  
     e( 11 - 11) =      5.13660  eV     1   --> B_1  D_3  S_3  
     e( 12 - 12) =      5.41577  eV     1   --> B_2  D_4  S_4  
     e( 13 - 13) =      5.78256  eV     1   --> A_2  D_2  S_2  
     e( 14 - 14) =      5.78452  eV     1   --> B_2  D_4  S_4  
     e( 15 - 15) =      6.24691  eV     1   --> A_1  D_1  S_1  
     e( 16 - 16) =      6.64972  eV     1   --> A_2  D_2  S_2  
     e( 17 - 17) =      7.43173  eV     1   --> B_1  D_3  S_3  
     e( 18 - 18) =      7.91975  eV     1   --> B_2  D_4  S_4  
     e( 19 - 19) =     12.02753  eV     1   --> A_2  D_2  S_2  
     e( 20 - 20) =     12.03208  eV     1   --> B_2  D_4  S_4  
     e( 21 - 21) =     12.07261  eV     1   --> A_1  D_1  S_1  
     e( 22 - 22) =     12.28451  eV     1   --> B_1  D_3  S_3  
     e( 23 - 23) =     12.54618  eV     1   --> A_1  D_1  S_1  
     e( 24 - 24) =     12.66388  eV     1   --> B_1  D_3  S_3  
     e( 25 - 25) =     12.98575  eV     1   --> A_2  D_2  S_2  
     e( 26 - 26) =     13.03736  eV     1   --> B_2  D_4  S_4  
     e( 27 - 27) =     13.66985  eV     1   --> A_1  D_1  S_1  
     e( 28 - 28) =     14.20126  eV     1   --> A_2  D_2  S_2  

 **************************************************************************

 **************************************************************************

                    xk=(   0.07500,   0.12990,   0.00000  )

     Band symmetry, C_2v (mm2)  point group:

     e(  1 -  1) =     -3.73130  eV     1   --> A_1  D_1  S_1  
     e(  2 -  2) =     -3.66839  eV     1   --> B_1  D_3  S_3  
     e(  3 -  3) =     -2.09731  eV     1   --> A_2  D_2  S_2  
     e(  4 -  4) =     -1.92651  eV     1   --> B_2  D_4  S_4  
     e(  5 -  5) =      1.86969  eV     1   --> A_1  D_1  S_1  
     e(  6 -  6) =      2.23181  eV     1   --> B_1  D_3  S_3  
     e(  7 -  7) =      4.45792  eV     1   --> A_1  D_1  S_1  
     e(  8 -  8) =      4.47412  eV     1   --> B_1  D_3  S_3  
     e(  9 -  9) =      4.86293  eV     1   --> A_2  D_2  S_2  
     e( 10 - 10) =      5.20525  eV     1   --> A_1  D_1  S_1  
     e( 11 - 11) =      5.20552  eV     1   --> B_1  D_3  S_3  
     e( 12 - 12) =      5.31616  eV     1   --> B_2  D_4  S_4  
     e( 13 - 13) =      5.71850  eV     1   --> A_2  D_2  S_2  
     e( 14 - 14) =      5.72094  eV     1   --> B_2  D_4  S_4  
     e( 15 - 15) =      6.26867  eV     1   --> A_1  D_1  S_1  
     e( 16 - 16) =      6.74560  eV     1   --> A_2  D_2  S_2  
     e( 17 - 17) =      7.42151  eV     1   --> B_1  D_3  S_3  
     e( 18 - 18) =      8.01979  eV     1   --> B_2  D_4  S_4  
     e( 19 - 19) =     11.84163  eV     1   --> A_1  D_1  S_1  
     e( 20 - 20) =     11.87204  eV     1   --> A_2  D_2  S_2  
     e( 21 - 21) =     11.88664  eV     1   --> B_2  D_4  S_4  
     e( 22 - 22) =     12.06847  eV     1   --> B_1  D_3  S_3  
     e( 23 - 23) =     12.34093  eV     1   --> A_1  D_1  S_1  
     e( 24 - 24) =     12.46623  eV     1   --> B_1  D_3  S_3  
     e( 25 - 25) =     13.00492  eV     1   --> A_2  D_2  S_2  
     e( 26 - 26) =     13.07902  eV     1   --> B_2  D_4  S_4  
     e( 27 - 27) =     13.72049  eV     1   --> A_1  D_1  S_1  
     e( 28 - 28) =     14.29303  eV     1   --> A_2  D_2  S_2  

 **************************************************************************

 **************************************************************************

                    xk=(   0.08333,   0.14434,   0.00000  )

     Band symmetry, C_2v (mm2)  point group:

     e(  1 -  1) =     -3.65637  eV     1   --> A_1  D_1  S_1  
     e(  2 -  2) =     -3.59340  eV     1   --> B_1  D_3  S_3  
     e(  3 -  3) =     -2.04811  eV     1   --> A_2  D_2  S_2  
     e(  4 -  4) =     -1.88009  eV     1   --> B_2  D_4  S_4  
     e(  5 -  5) =      1.93146  eV     1   --> A_1  D_1  S_1  
     e(  6 -  6) =      2.28754  eV     1   --> B_1  D_3  S_3  
     e(  7 -  7) =      4.37986  eV     1   --> A_1  D_1  S_1  
     e(  8 -  8) =      4.40061  eV     1   --> B_1  D_3  S_3  
     e(  9 -  9) =      4.77896  eV     1   --> A_2  D_2  S_2  
     e( 10 - 10) =      5.21931  eV     1   --> B_2  D_4  S_4  
     e( 11 - 11) =      5.28150  eV     1   --> A_1  D_1  S_1  
     e( 12 - 12) =      5.28187  eV     1   --> B_1  D_3  S_3  
     e( 13 - 13) =      5.64612  eV     1   --> A_2  D_2  S_2  
     e( 14 - 14) =      5.64917  eV     1   --> B_2  D_4  S_4  
     e( 15 - 15) =      6.29070  eV     1   --> A_1  D_1  S_1  
     e( 16 - 16) =      6.84041  eV     1   --> A_2  D_2  S_2  
     e( 17 - 17) =      7.40715  eV     1   --> B_1  D_3  S_3  
     e( 18 - 18) =      8.11404  eV     1   --> B_2  D_4  S_4  
     e( 19 - 19) =     11.61008  eV     1   --> A_1  D_1  S_1  
     e( 20 - 20) =     11.71663  eV     1   --> A_2  D_2  S_2  
     e( 21 - 21) =     11.74486  eV     1   --> B_2  D_4  S_4  
     e( 22 - 22) =     11.85361  eV     1   --> B_1  D_3  S_3  
     e( 23 - 23) =     12.12717  eV     1   --> A_1  D_1  S_1  
     e( 24 - 24) =     12.26025  eV     1   --> B_1  D_3  S_3  
     e( 25 - 25) =     13.01584  eV     1   --> A_2  D_2  S_2  
     e( 26 - 26) =     13.11842  eV     1   --> B_2  D_4  S_4  
     e( 27 - 27) =     13.77277  eV     1   --> A_1  D_1  S_1  
     e( 28 - 28) =     14.39313  eV     1   --> A_2  D_2  S_2  

 **************************************************************************

 **************************************************************************

                    xk=(   0.09167,   0.15877,   0.00000  )

     Band symmetry, C_2v (mm2)  point group:

     e(  1 -  1) =     -3.57404  eV     1   --> A_1  D_1  S_1  
     e(  2 -  2) =     -3.51112  eV     1   --> B_1  D_3  S_3  
     e(  3 -  3) =     -1.99422  eV     1   --> A_2  D_2  S_2  
     e(  4 -  4) =     -1.82922  eV     1   --> B_2  D_4  S_4  
     e(  5 -  5) =      1.99688  eV     1   --> A_1  D_1  S_1  
     e(  6 -  6) =      2.34540  eV     1   --> B_1  D_3  S_3  
     e(  7 -  7) =      4.30114  eV     1   --> A_1  D_1  S_1  
     e(  8 -  8) =      4.32756  eV     1   --> B_1  D_3  S_3  
     e(  9 -  9) =      4.69902  eV     1   --> A_2  D_2  S_2  
     e( 10 - 10) =      5.12636  eV     1   --> B_2  D_4  S_4  
     e( 11 - 11) =      5.36486  eV     1   --> A_1  D_1  S_1  
     e( 12 - 12) =      5.36518  eV     1   --> B_1  D_3  S_3  
     e( 13 - 13) =      5.56532  eV     1   --> A_2  D_2  S_2  
     e( 14 - 14) =      5.56917  eV     1   --> B_2  D_4  S_4  
     e( 15 - 15) =      6.31231  eV     1   --> A_1  D_1  S_1  
     e( 16 - 16) =      6.93369  eV     1   --> A_2  D_2  S_2  
     e( 17 - 17) =      7.38781  eV     1   --> B_1  D_3  S_3  
     e( 18 - 18) =      8.20026  eV     1   --> B_2  D_4  S_4  
     e( 19 - 19) =     11.38072  eV     1   --> A_1  D_1  S_1  
     e( 20 - 20) =     11.56362  eV     1   --> A_2  D_2  S_2  
     e( 21 - 21) =     11.60989  eV     1   --> B_2  D_4  S_4  
     e( 22 - 22) =     11.64242  eV     1   --> B_1  D_3  S_3  
     e( 23 - 23) =     11.90792  eV     1   --> A_1  D_1  S_1  
     e( 24 - 24) =     12.04931  eV     1   --> B_1  D_3  S_3  
     e( 25 - 25) =     13.01612  eV     1   --> A_2  D_2  S_2  
     e( 26 - 26) =     13.15312  eV     1   --> B_2  D_4  S_4  
     e( 27 - 27) =     13.82584  eV     1   --> A_1  D_1  S_1  
     e( 28 - 28) =     14.49978  eV     1   --> A_2  D_2  S_2  

 **************************************************************************

 **************************************************************************

                    xk=(   0.10000,   0.17321,   0.00000  )

     Band symmetry, C_2v (mm2)  point group:

     e(  1 -  1) =     -3.48459  eV     1   --> A_1  D_1  S_1  
     e(  2 -  2) =     -3.42171  eV     1   --> B_1  D_3  S_3  
     e(  3 -  3) =     -1.93576  eV     1   --> A_2  D_2  S_2  
     e(  4 -  4) =     -1.77407  eV     1   --> B_2  D_4  S_4  
     e(  5 -  5) =      2.06481  eV     1   --> A_1  D_1  S_1  
     e(  6 -  6) =      2.40392  eV     1   --> B_1  D_3  S_3  
     e(  7 -  7) =      4.22368  eV     1   --> A_1  D_1  S_1  
     e(  8 -  8) =      4.25709  eV     1   --> B_1  D_3  S_3  
     e(  9 -  9) =      4.62365  eV     1   --> A_2  D_2  S_2  
     e( 10 - 10) =      5.03805  eV     1   --> B_2  D_4  S_4  
     e( 11 - 11) =      5.45477  eV     1   --> A_1  D_1  S_1  
     e( 12 - 12) =      5.45493  eV     1   --> B_1  D_3  S_3  
     e( 13 - 13) =      5.47621  eV     1   --> A_2  D_2  S_2  
     e( 14 - 14) =      5.48109  eV     1   --> B_2  D_4  S_4  
     e( 15 - 15) =      6.33273  eV     1   --> A_1  D_1  S_1  
     e( 16 - 16) =      7.02489  eV     1   --> A_2  D_2  S_2  
     e( 17 - 17) =      7.36271  eV     1   --> B_1  D_3  S_3  
     e( 18 - 18) =      8.27624  eV     1   --> B_2  D_4  S_4  
     e( 19 - 19) =     11.15567  eV     1   --> A_1  D_1  S_1  
     e( 20 - 20) =     11.41505  eV     1   --> A_2  D_2  S_2  
     e( 21 - 21) =     11.43685  eV     1   --> B_1  D_3  S_3  
     e( 22 - 22) =     11.48425  eV     1   --> B_2  D_4  S_4  
     e( 23 - 23) =     11.68602  eV     1   --> A_1  D_1  S_1  
     e( 24 - 24) =     11.83676  eV     1   --> B_1  D_3  S_3  
     e( 25 - 25) =     13.00361  eV     1   --> A_2  D_2  S_2  
     e( 26 - 26) =     13.18063  eV     1   --> B_2  D_4  S_4  
     e( 27 - 27) =     13.87904  eV     1   --> A_1  D_1  S_1  
     e( 28 - 28) =     14.61068  eV     1   --> A_2  D_2  S_2  

 **************************************************************************

 **************************************************************************

                    xk=(   0.10833,   0.18764,   0.00000  )

     Band symmetry, C_2v (mm2)  point group:

     e(  1 -  1) =     -3.38825  eV     1   --> A_1  D_1  S_1  
     e(  2 -  2) =     -3.32543  eV     1   --> B_1  D_3  S_3  
     e(  3 -  3) =     -1.87288  eV     1   --> A_2  D_2  S_2  
     e(  4 -  4) =     -1.71480  eV     1   --> B_2  D_4  S_4  
     e(  5 -  5) =      2.13387  eV     1   --> A_1  D_1  S_1  
     e(  6 -  6) =      2.46122  eV     1   --> B_1  D_3  S_3  
     e(  7 -  7) =      4.14952  eV     1   --> A_1  D_1  S_1  
     e(  8 -  8) =      4.19167  eV     1   --> B_1  D_3  S_3  
     e(  9 -  9) =      4.55334  eV     1   --> A_2  D_2  S_2  
     e( 10 - 10) =      4.95495  eV     1   --> B_2  D_4  S_4  
     e( 11 - 11) =      5.37883  eV     1   --> A_2  D_2  S_2  
     e( 12 - 12) =      5.38514  eV     1   --> B_2  D_4  S_4  
     e( 13 - 14) =      5.55028  eV     2   --> A_1  D_1  S_1  
     e( 13 - 14) =      5.55028  eV     2   --> B_1  D_3  S_3  
     e( 15 - 15) =      6.35127  eV     1   --> A_1  D_1  S_1  
     e( 16 - 16) =      7.11338  eV     1   --> A_2  D_2  S_2  
     e( 17 - 17) =      7.33129  eV     1   --> B_1  D_3  S_3  
     e( 18 - 18) =      8.33982  eV     1   --> B_2  D_4  S_4  
     e( 19 - 19) =     10.93675  eV     1   --> A_1  D_1  S_1  
     e( 20 - 20) =     11.23793  eV     1   --> B_1  D_3  S_3  
     e( 21 - 21) =     11.27247  eV     1   --> A_2  D_2  S_2  
     e( 22 - 22) =     11.36989  eV     1   --> B_2  D_4  S_4  
     e( 23 - 23) =     11.46424  eV     1   --> A_1  D_1  S_1  
     e( 24 - 24) =     11.62612  eV     1   --> B_1  D_3  S_3  
     e( 25 - 25) =     12.97668  eV     1   --> A_2  D_2  S_2  
     e( 26 - 26) =     13.19874  eV     1   --> B_2  D_4  S_4  
     e( 27 - 27) =     13.93162  eV     1   --> A_1  D_1  S_1  
     e( 28 - 28) =     14.72307  eV     1   --> A_2  D_2  S_2  

 **************************************************************************

 **************************************************************************

                    xk=(   0.11667,   0.20207,   0.00000  )

     Band symmetry, C_2v (mm2)  point group:

     e(  1 -  1) =     -3.28517  eV     1   --> A_1  D_1  S_1  
     e(  2 -  2) =     -3.22237  eV     1   --> B_1  D_3  S_3  
     e(  3 -  3) =     -1.80572  eV     1   --> A_2  D_2  S_2  
     e(  4 -  4) =     -1.65163  eV     1   --> B_2  D_4  S_4  
     e(  5 -  5) =      2.20233  eV     1   --> A_1  D_1  S_1  
     e(  6 -  6) =      2.51512  eV     1   --> B_1  D_3  S_3  
     e(  7 -  7) =      4.08086  eV     1   --> A_1  D_1  S_1  
     e(  8 -  8) =      4.13402  eV     1   --> B_1  D_3  S_3  
     e(  9 -  9) =      4.48862  eV     1   --> A_2  D_2  S_2  
     e( 10 - 10) =      4.87747  eV     1   --> B_2  D_4  S_4  
     e( 11 - 11) =      5.27357  eV     1   --> A_2  D_2  S_2  
     e( 12 - 12) =      5.28184  eV     1   --> B_2  D_4  S_4  
     e( 13 - 14) =      5.64985  eV     2   --> A_1  D_1  S_1  
     e( 13 - 14) =      5.64985  eV     2   --> B_1  D_3  S_3  
     e( 15 - 15) =      6.36762  eV     1   --> A_1  D_1  S_1  
     e( 16 - 16) =      7.19841  eV     1   --> A_2  D_2  S_2  
     e( 17 - 17) =      7.29338  eV     1   --> B_1  D_3  S_3  
     e( 18 - 18) =      8.38895  eV     1   --> B_2  D_4  S_4  
     e( 19 - 19) =     10.72536  eV     1   --> A_1  D_1  S_1  
     e( 20 - 20) =     11.04591  eV     1   --> B_1  D_3  S_3  
     e( 21 - 21) =     11.13702  eV     1   --> A_2  D_2  S_2  
     e( 22 - 22) =     11.24542  eV     1   --> A_1  D_1  S_1  
     e( 23 - 23) =     11.26849  eV     1   --> B_2  D_4  S_4  
     e( 24 - 24) =     11.42119  eV     1   --> B_1  D_3  S_3  
     e( 25 - 25) =     12.93443  eV     1   --> A_2  D_2  S_2  
     e( 26 - 26) =     13.20601  eV     1   --> B_2  D_4  S_4  
     e( 27 - 27) =     13.98294  eV     1   --> A_1  D_1  S_1  
     e( 28 - 28) =     14.83396  eV     1   --> A_2  D_2  S_2  

 **************************************************************************

 **************************************************************************

                    xk=(   0.12500,   0.21651,   0.00000  )

     Band symmetry, C_2v (mm2)  point group:

     e(  1 -  1) =     -3.17565  eV     1   --> A_1  D_1  S_1  
     e(  2 -  2) =     -3.11300  eV     1   --> B_1  D_3  S_3  
     e(  3 -  3) =     -1.73462  eV     1   --> A_2  D_2  S_2  
     e(  4 -  4) =     -1.58474  eV     1   --> B_2  D_4  S_4  
     e(  5 -  5) =      2.26811  eV     1   --> A_1  D_1  S_1  
     e(  6 -  6) =      2.56301  eV     1   --> B_1  D_3  S_3  
     e(  7 -  7) =      4.02028  eV     1   --> A_1  D_1  S_1  
     e(  8 -  8) =      4.08698  eV     1   --> B_1  D_3  S_3  
     e(  9 -  9) =      4.42973  eV     1   --> A_2  D_2  S_2  
     e( 10 - 10) =      4.80563  eV     1   --> B_2  D_4  S_4  
     e( 11 - 11) =      5.16081  eV     1   --> A_2  D_2  S_2  
     e( 12 - 12) =      5.17194  eV     1   --> B_2  D_4  S_4  
     e( 13 - 13) =      5.75107  eV     1   --> A_1  D_1  S_1  
     e( 14 - 14) =      5.75146  eV     1   --> B_1  D_3  S_3  
     e( 15 - 15) =      6.38238  eV     1   --> A_1  D_1  S_1  
     e( 16 - 16) =      7.24962  eV     1   --> B_1  D_3  S_3  
     e( 17 - 17) =      7.27907  eV     1   --> A_2  D_2  S_2  
     e( 18 - 18) =      8.42181  eV     1   --> B_2  D_4  S_4  
     e( 19 - 19) =     10.52255  eV     1   --> A_1  D_1  S_1  
     e( 20 - 20) =     10.85997  eV     1   --> B_1  D_3  S_3  
     e( 21 - 21) =     11.00970  eV     1   --> A_2  D_2  S_2  
     e( 22 - 22) =     11.03259  eV     1   --> A_1  D_1  S_1  
     e( 23 - 23) =     11.18080  eV     1   --> B_2  D_4  S_4  
     e( 24 - 24) =     11.22627  eV     1   --> B_1  D_3  S_3  
     e( 25 - 25) =     12.87700  eV     1   --> A_2  D_2  S_2  
     e( 26 - 26) =     13.20206  eV     1   --> B_2  D_4  S_4  
     e( 27 - 27) =     14.03229  eV     1   --> A_1  D_1  S_1  
     e( 28 - 28) =     14.94017  eV     1   --> A_2  D_2  S_2  

 **************************************************************************

 **************************************************************************

                    xk=(   0.13333,   0.23094,   0.00000  )

     Band symmetry, C_2v (mm2)  point group:

     e(  1 -  1) =     -3.05993  eV     1   --> A_1  D_1  S_1  
     e(  2 -  2) =     -2.99754  eV     1   --> B_1  D_3  S_3  
     e(  3 -  3) =     -1.65973  eV     1   --> A_2  D_2  S_2  
     e(  4 -  4) =     -1.51433  eV     1   --> B_2  D_4  S_4  
     e(  5 -  5) =      2.32878  eV     1   --> A_1  D_1  S_1  
     e(  6 -  6) =      2.60224  eV     1   --> B_1  D_3  S_3  
     e(  7 -  7) =      3.97042  eV     1   --> A_1  D_1  S_1  
     e(  8 -  8) =      4.05346  eV     1   --> B_1  D_3  S_3  
     e(  9 -  9) =      4.37701  eV     1   --> A_2  D_2  S_2  
     e( 10 - 10) =      4.73897  eV     1   --> B_2  D_4  S_4  
     e( 11 - 11) =      5.04121  eV     1   --> A_2  D_2  S_2  
     e( 12 - 12) =      5.05688  eV     1   --> B_2  D_4  S_4  
     e( 13 - 13) =      5.84913  eV     1   --> A_1  D_1  S_1  
     e( 14 - 14) =      5.85202  eV     1   --> B_1  D_3  S_3  
     e( 15 - 15) =      6.39803  eV     1   --> A_1  D_1  S_1  
     e( 16 - 16) =      7.20181  eV     1   --> B_1  D_3  S_3  
     e( 17 - 17) =      7.35428  eV     1   --> A_2  D_2  S_2  
     e( 18 - 18) =      8.43702  eV     1   --> B_2  D_4  S_4  
     e( 19 - 19) =     10.32862  eV     1   --> A_1  D_1  S_1  
     e( 20 - 20) =     10.67843  eV     1   --> B_1  D_3  S_3  
     e( 21 - 21) =     10.82916  eV     1   --> A_1  D_1  S_1  
     e( 22 - 22) =     10.89117  eV     1   --> A_2  D_2  S_2  
     e( 23 - 23) =     11.04592  eV     1   --> B_1  D_3  S_3  
     e( 24 - 24) =     11.10692  eV     1   --> B_2  D_4  S_4  
     e( 25 - 25) =     12.80570  eV     1   --> A_2  D_2  S_2  
     e( 26 - 26) =     13.18817  eV     1   --> B_2  D_4  S_4  
     e( 27 - 27) =     14.07882  eV     1   --> A_1  D_1  S_1  
     e( 28 - 28) =     15.03869  eV     1   --> A_2  D_2  S_2  

 **************************************************************************

 **************************************************************************

                    xk=(   0.14167,   0.24537,   0.00000  )

     Band symmetry, C_2v (mm2)  point group:

     e(  1 -  1) =     -2.93842  eV     1   --> A_1  D_1  S_1  
     e(  2 -  2) =     -2.87625  eV     1   --> B_1  D_3  S_3  
     e(  3 -  3) =     -1.58129  eV     1   --> A_2  D_2  S_2  
     e(  4 -  4) =     -1.44073  eV     1   --> B_2  D_4  S_4  
     e(  5 -  5) =      2.38170  eV     1   --> A_1  D_1  S_1  
     e(  6 -  6) =      2.63032  eV     1   --> B_1  D_3  S_3  
     e(  7 -  7) =      3.93410  eV     1   --> A_1  D_1  S_1  
     e(  8 -  8) =      4.03598  eV     1   --> B_1  D_3  S_3  
     e(  9 -  9) =      4.33054  eV     1   --> A_2  D_2  S_2  
     e( 10 - 10) =      4.67569  eV     1   --> B_2  D_4  S_4  
     e( 11 - 11) =      4.91561  eV     1   --> A_2  D_2  S_2  
     e( 12 - 12) =      4.93934  eV     1   --> B_2  D_4  S_4  
     e( 13 - 13) =      5.93541  eV     1   --> A_1  D_1  S_1  
     e( 14 - 14) =      5.94665  eV     1   --> B_1  D_3  S_3  
     e( 15 - 15) =      6.42082  eV     1   --> A_1  D_1  S_1  
     e( 16 - 16) =      7.15369  eV     1   --> B_1  D_3  S_3  
     e( 17 - 17) =      7.42278  eV     1   --> A_2  D_2  S_2  
     e( 18 - 18) =      8.43381  eV     1   --> B_2  D_4  S_4  
     e( 19 - 19) =     10.14316  eV     1   --> A_1  D_1  S_1  
     e( 20 - 20) =     10.49978  eV     1   --> B_1  D_3  S_3  
     e( 21 - 21) =     10.63895  eV     1   --> A_1  D_1  S_1  
     e( 22 - 22) =     10.78182  eV     1   --> A_2  D_2  S_2  
     e( 23 - 23) =     10.88404  eV     1   --> B_1  D_3  S_3  
     e( 24 - 24) =     11.04582  eV     1   --> B_2  D_4  S_4  
     e( 25 - 25) =     12.72290  eV     1   --> A_2  D_2  S_2  
     e( 26 - 26) =     13.16710  eV     1   --> B_2  D_4  S_4  
     e( 27 - 27) =     14.12141  eV     1   --> A_1  D_1  S_1  
     e( 28 - 28) =     15.12696  eV     1   --> A_2  D_2  S_2  

 **************************************************************************

 **************************************************************************

                    xk=(   0.15000,   0.25981,   0.00000  )

     Band symmetry, C_2v (mm2)  point group:

     e(  1 -  1) =     -2.81125  eV     1   --> A_1  D_1  S_1  
     e(  2 -  2) =     -2.74954  eV     1   --> B_1  D_3  S_3  
     e(  3 -  3) =     -1.49946  eV     1   --> A_2  D_2  S_2  
     e(  4 -  4) =     -1.36399  eV     1   --> B_2  D_4  S_4  
     e(  5 -  5) =      2.42429  eV     1   --> A_1  D_1  S_1  
     e(  6 -  6) =      2.64558  eV     1   --> B_1  D_3  S_3  
     e(  7 -  7) =      3.91388  eV     1   --> A_1  D_1  S_1  
     e(  8 -  8) =      4.03624  eV     1   --> B_1  D_3  S_3  
     e(  9 -  9) =      4.29019  eV     1   --> A_2  D_2  S_2  
     e( 10 - 10) =      4.61084  eV     1   --> B_2  D_4  S_4  
     e( 11 - 11) =      4.78531  eV     1   --> A_2  D_2  S_2  
     e( 12 - 12) =      4.82541  eV     1   --> B_2  D_4  S_4  
     e( 13 - 13) =      5.99673  eV     1   --> A_1  D_1  S_1  
     e( 14 - 14) =      6.02790  eV     1   --> B_1  D_3  S_3  
     e( 15 - 15) =      6.46186  eV     1   --> A_1  D_1  S_1  
     e( 16 - 16) =      7.11179  eV     1   --> B_1  D_3  S_3  
     e( 17 - 17) =      7.48318  eV     1   --> A_2  D_2  S_2  
     e( 18 - 18) =      8.41215  eV     1   --> B_2  D_4  S_4  
     e( 19 - 19) =      9.96533  eV     1   --> A_1  D_1  S_1  
     e( 20 - 20) =     10.32406  eV     1   --> B_1  D_3  S_3  
     e( 21 - 21) =     10.46610  eV     1   --> A_1  D_1  S_1  
     e( 22 - 22) =     10.68185  eV     1   --> A_2  D_2  S_2  
     e( 23 - 23) =     10.74257  eV     1   --> B_1  D_3  S_3  
     e( 24 - 24) =     10.99562  eV     1   --> B_2  D_4  S_4  
     e( 25 - 25) =     12.63197  eV     1   --> A_2  D_2  S_2  
     e( 26 - 26) =     13.14305  eV     1   --> B_2  D_4  S_4  
     e( 27 - 27) =     14.15877  eV     1   --> A_1  D_1  S_1  
     e( 28 - 28) =     15.20311  eV     1   --> A_2  D_2  S_2  

 **************************************************************************

 **************************************************************************

                    xk=(   0.15833,   0.27424,   0.00000  )

     Band symmetry, C_2v (mm2)  point group:

     e(  1 -  1) =     -2.67910  eV     1   --> A_1  D_1  S_1  
     e(  2 -  2) =     -2.61788  eV     1   --> B_1  D_3  S_3  
     e(  3 -  3) =     -1.41469  eV     1   --> A_2  D_2  S_2  
     e(  4 -  4) =     -1.28456  eV     1   --> B_2  D_4  S_4  
     e(  5 -  5) =      2.45452  eV     1   --> A_1  D_1  S_1  
     e(  6 -  6) =      2.64751  eV     1   --> B_1  D_3  S_3  
     e(  7 -  7) =      3.91161  eV     1   --> A_1  D_1  S_1  
     e(  8 -  8) =      4.05434  eV     1   --> B_1  D_3  S_3  
     e(  9 -  9) =      4.25481  eV     1   --> A_2  D_2  S_2  
     e( 10 - 10) =      4.53260  eV     1   --> B_2  D_4  S_4  
     e( 11 - 11) =      4.65235  eV     1   --> A_2  D_2  S_2  
     e( 12 - 12) =      4.72778  eV     1   --> B_2  D_4  S_4  
     e( 13 - 13) =      6.02060  eV     1   --> A_1  D_1  S_1  
     e( 14 - 14) =      6.08549  eV     1   --> B_1  D_3  S_3  
     e( 15 - 15) =      6.53120  eV     1   --> A_1  D_1  S_1  
     e( 16 - 16) =      7.08544  eV     1   --> B_1  D_3  S_3  
     e( 17 - 17) =      7.53402  eV     1   --> A_2  D_2  S_2  
     e( 18 - 18) =      8.37269  eV     1   --> B_2  D_4  S_4  
     e( 19 - 19) =      9.79395  eV     1   --> A_1  D_1  S_1  
     e( 20 - 20) =     10.15336  eV     1   --> B_1  D_3  S_3  
     e( 21 - 21) =     10.31435  eV     1   --> A_1  D_1  S_1  
     e( 22 - 22) =     10.59122  eV     1   --> A_2  D_2  S_2  
     e( 23 - 23) =     10.62099  eV     1   --> B_1  D_3  S_3  
     e( 24 - 24) =     10.95341  eV     1   --> B_2  D_4  S_4  
     e( 25 - 25) =     12.53692  eV     1   --> A_2  D_2  S_2  
     e( 26 - 26) =     13.12088  eV     1   --> B_2  D_4  S_4  
     e( 27 - 27) =     14.18912  eV     1   --> A_1  D_1  S_1  
     e( 28 - 28) =     15.26600  eV     1   --> A_2  D_2  S_2  

 **************************************************************************

 **************************************************************************

                    xk=(   0.16667,   0.28868,   0.00000  )

     Band symmetry, C_2v (mm2)  point group:

     e(  1 -  1) =     -2.54220  eV     1   --> A_1  D_1  S_1  
     e(  2 -  2) =     -2.48165  eV     1   --> B_1  D_3  S_3  
     e(  3 -  3) =     -1.32718  eV     1   --> A_2  D_2  S_2  
     e(  4 -  4) =     -1.20267  eV     1   --> B_2  D_4  S_4  
     e(  5 -  5) =      2.47146  eV     1   --> A_1  D_1  S_1  
     e(  6 -  6) =      2.63712  eV     1   --> B_1  D_3  S_3  
     e(  7 -  7) =      3.92799  eV     1   --> A_1  D_1  S_1  
     e(  8 -  8) =      4.08893  eV     1   --> B_1  D_3  S_3  
     e(  9 -  9) =      4.22136  eV     1   --> A_2  D_2  S_2  
     e( 10 - 10) =      4.42820  eV     1   --> B_2  D_4  S_4  
     e( 11 - 11) =      4.52102  eV     1   --> A_2  D_2  S_2  
     e( 12 - 12) =      4.66038  eV     1   --> B_2  D_4  S_4  
     e( 13 - 13) =      6.00624  eV     1   --> A_1  D_1  S_1  
     e( 14 - 14) =      6.10837  eV     1   --> B_1  D_3  S_3  
     e( 15 - 15) =      6.62778  eV     1   --> A_1  D_1  S_1  
     e( 16 - 16) =      7.08485  eV     1   --> B_1  D_3  S_3  
     e( 17 - 17) =      7.57379  eV     1   --> A_2  D_2  S_2  
     e( 18 - 18) =      8.31681  eV     1   --> B_2  D_4  S_4  
     e( 19 - 19) =      9.62919  eV     1   --> A_1  D_1  S_1  
     e( 20 - 20) =      9.99150  eV     1   --> B_1  D_3  S_3  
     e( 21 - 21) =     10.18614  eV     1   --> A_1  D_1  S_1  
     e( 22 - 22) =     10.50954  eV     1   --> A_2  D_2  S_2  
     e( 23 - 23) =     10.51687  eV     1   --> B_1  D_3  S_3  
     e( 24 - 24) =     10.91565  eV     1   --> B_2  D_4  S_4  
     e( 25 - 25) =     12.44228  eV     1   --> A_2  D_2  S_2  
     e( 26 - 26) =     13.10560  eV     1   --> B_2  D_4  S_4  
     e( 27 - 27) =     14.21028  eV     1   --> A_1  D_1  S_1  
     e( 28 - 28) =     15.31532  eV     1   --> A_2  D_2  S_2  

 **************************************************************************

 **************************************************************************

                    xk=(   0.17500,   0.30311,   0.00000  )

     Band symmetry, C_2v (mm2)  point group:

     e(  1 -  1) =     -2.40119  eV     1   --> A_1  D_1  S_1  
     e(  2 -  2) =     -2.34139  eV     1   --> B_1  D_3  S_3  
     e(  3 -  3) =     -1.23724  eV     1   --> A_2  D_2  S_2  
     e(  4 -  4) =     -1.11849  eV     1   --> B_2  D_4  S_4  
     e(  5 -  5) =      2.47556  eV     1   --> A_1  D_1  S_1  
     e(  6 -  6) =      2.61647  eV     1   --> B_1  D_3  S_3  
     e(  7 -  7) =      3.96203  eV     1   --> A_1  D_1  S_1  
     e(  8 -  8) =      4.13722  eV     1   --> B_1  D_3  S_3  
     e(  9 -  9) =      4.17950  eV     1   --> A_2  D_2  S_2  
     e( 10 - 10) =      4.30121  eV     1   --> B_2  D_4  S_4  
     e( 11 - 11) =      4.40283  eV     1   --> A_2  D_2  S_2  
     e( 12 - 12) =      4.62072  eV     1   --> B_2  D_4  S_4  
     e( 13 - 13) =      5.96129  eV     1   --> A_1  D_1  S_1  
     e( 14 - 14) =      6.09049  eV     1   --> B_1  D_3  S_3  
     e( 15 - 15) =      6.74199  eV     1   --> A_1  D_1  S_1  
     e( 16 - 16) =      7.11472  eV     1   --> B_1  D_3  S_3  
     e( 17 - 17) =      7.60111  eV     1   --> A_2  D_2  S_2  
     e( 18 - 18) =      8.24623  eV     1   --> B_2  D_4  S_4  
     e( 19 - 19) =      9.47244  eV     1   --> A_1  D_1  S_1  
     e( 20 - 20) =      9.84338  eV     1   --> B_1  D_3  S_3  
     e( 21 - 21) =     10.08193  eV     1   --> A_1  D_1  S_1  
     e( 22 - 22) =     10.42685  eV     1   --> B_1  D_3  S_3  
     e( 23 - 23) =     10.43579  eV     1   --> A_2  D_2  S_2  
     e( 24 - 24) =     10.87880  eV     1   --> B_2  D_4  S_4  
     e( 25 - 25) =     12.35272  eV     1   --> A_2  D_2  S_2  
     e( 26 - 26) =     13.10188  eV     1   --> B_2  D_4  S_4  
     e( 27 - 27) =     14.21949  eV     1   --> A_1  D_1  S_1  
     e( 28 - 28) =     15.31362  eV     1   --> B_1  D_3  S_3  

 **************************************************************************

 **************************************************************************

                    xk=(   0.18333,   0.31754,   0.00000  )

     Band symmetry, C_2v (mm2)  point group:

     e(  1 -  1) =     -2.25657  eV     1   --> A_1  D_1  S_1  
     e(  2 -  2) =     -2.19781  eV     1   --> B_1  D_3  S_3  
     e(  3 -  3) =     -1.14533  eV     1   --> A_2  D_2  S_2  
     e(  4 -  4) =     -1.03248  eV     1   --> B_2  D_4  S_4  
     e(  5 -  5) =      2.46855  eV     1   --> A_1  D_1  S_1  
     e(  6 -  6) =      2.58832  eV     1   --> B_1  D_3  S_3  
     e(  7 -  7) =      4.01123  eV     1   --> A_1  D_1  S_1  
     e(  8 -  8) =      4.10462  eV     1   --> A_2  D_2  S_2  
     e(  9 -  9) =      4.16183  eV     1   --> B_2  D_4  S_4  
     e( 10 - 10) =      4.19546  eV     1   --> B_1  D_3  S_3  
     e( 11 - 11) =      4.32336  eV     1   --> A_2  D_2  S_2  
     e( 12 - 12) =      4.59943  eV     1   --> B_2  D_4  S_4  
     e( 13 - 13) =      5.89385  eV     1   --> A_1  D_1  S_1  
     e( 14 - 14) =      6.03505  eV     1   --> B_1  D_3  S_3  
     e( 15 - 15) =      6.86379  eV     1   --> A_1  D_1  S_1  
     e( 16 - 16) =      7.17011  eV     1   --> B_1  D_3  S_3  
     e( 17 - 17) =      7.61488  eV     1   --> A_2  D_2  S_2  
     e( 18 - 18) =      8.16291  eV     1   --> B_2  D_4  S_4  
     e( 19 - 19) =      9.32711  eV     1   --> A_1  D_1  S_1  
     e( 20 - 20) =      9.71467  eV     1   --> B_1  D_3  S_3  
     e( 21 - 21) =     10.00012  eV     1   --> A_1  D_1  S_1  
     e( 22 - 22) =     10.34737  eV     1   --> B_1  D_3  S_3  
     e( 23 - 23) =     10.36835  eV     1   --> A_2  D_2  S_2  
     e( 24 - 24) =     10.83946  eV     1   --> B_2  D_4  S_4  
     e( 25 - 25) =     12.27281  eV     1   --> A_2  D_2  S_2  
     e( 26 - 26) =     13.11342  eV     1   --> B_2  D_4  S_4  
     e( 27 - 27) =     14.21349  eV     1   --> A_1  D_1  S_1  
     e( 28 - 28) =     15.07867  eV     1   --> B_1  D_3  S_3  

 **************************************************************************

 **************************************************************************

                    xk=(   0.19167,   0.33198,   0.00000  )

     Band symmetry, C_2v (mm2)  point group:

     e(  1 -  1) =     -2.10906  eV     1   --> A_1  D_1  S_1  
     e(  2 -  2) =     -2.05154  eV     1   --> B_1  D_3  S_3  
     e(  3 -  3) =     -1.05160  eV     1   --> A_2  D_2  S_2  
     e(  4 -  4) =     -0.94499  eV     1   --> B_2  D_4  S_4  
     e(  5 -  5) =      2.45311  eV     1   --> A_1  D_1  S_1  
     e(  6 -  6) =      2.55549  eV     1   --> B_1  D_3  S_3  
     e(  7 -  7) =      3.98755  eV     1   --> A_2  D_2  S_2  
     e(  8 -  8) =      4.01626  eV     1   --> B_2  D_4  S_4  
     e(  9 -  9) =      4.07184  eV     1   --> A_1  D_1  S_1  
     e( 10 - 10) =      4.25938  eV     1   --> B_1  D_3  S_3  
     e( 11 - 11) =      4.29294  eV     1   --> A_2  D_2  S_2  
     e( 12 - 12) =      4.59142  eV     1   --> B_2  D_4  S_4  
     e( 13 - 13) =      5.81001  eV     1   --> A_1  D_1  S_1  
     e( 14 - 14) =      5.95185  eV     1   --> B_1  D_3  S_3  
     e( 15 - 15) =      6.98487  eV     1   --> A_1  D_1  S_1  
     e( 16 - 16) =      7.23904  eV     1   --> B_1  D_3  S_3  
     e( 17 - 17) =      7.61443  eV     1   --> A_2  D_2  S_2  
     e( 18 - 18) =      8.06889  eV     1   --> B_2  D_4  S_4  
     e( 19 - 19) =      9.19830  eV     1   --> A_1  D_1  S_1  
     e( 20 - 20) =      9.61185  eV     1   --> B_1  D_3  S_3  
     e( 21 - 21) =      9.93760  eV     1   --> A_1  D_1  S_1  
     e( 22 - 22) =     10.27489  eV     1   --> B_1  D_3  S_3  
     e( 23 - 23) =     10.30525  eV     1   --> A_2  D_2  S_2  
     e( 24 - 24) =     10.79516  eV     1   --> B_2  D_4  S_4  
     e( 25 - 25) =     12.20726  eV     1   --> A_2  D_2  S_2  
     e( 26 - 26) =     13.14281  eV     1   --> B_2  D_4  S_4  
     e( 27 - 27) =     14.18887  eV     1   --> A_1  D_1  S_1  
     e( 28 - 28) =     14.83739  eV     1   --> B_1  D_3  S_3  

 **************************************************************************

 **************************************************************************

                    xk=(   0.20000,   0.34641,   0.00000  )

     Band symmetry, C_2v (mm2)  point group:

     e(  1 -  1) =     -1.95953  eV     1   --> A_1  D_1  S_1  
     e(  2 -  2) =     -1.90337  eV     1   --> B_1  D_3  S_3  
     e(  3 -  3) =     -0.95661  eV     1   --> A_2  D_2  S_2  
     e(  4 -  4) =     -0.85626  eV     1   --> B_2  D_4  S_4  
     e(  5 -  5) =      2.43221  eV     1   --> A_1  D_1  S_1  
     e(  6 -  6) =      2.52073  eV     1   --> B_1  D_3  S_3  
     e(  7 -  7) =      3.84943  eV     1   --> A_2  D_2  S_2  
     e(  8 -  8) =      3.86765  eV     1   --> B_2  D_4  S_4  
     e(  9 -  9) =      4.13930  eV     1   --> A_1  D_1  S_1  
     e( 10 - 10) =      4.29140  eV     1   --> A_2  D_2  S_2  
     e( 11 - 11) =      4.32410  eV     1   --> B_1  D_3  S_3  
     e( 12 - 12) =      4.59432  eV     1   --> B_2  D_4  S_4  
     e( 13 - 13) =      5.71479  eV     1   --> A_1  D_1  S_1  
     e( 14 - 14) =      5.85183  eV     1   --> B_1  D_3  S_3  
     e( 15 - 15) =      7.09770  eV     1   --> A_1  D_1  S_1  
     e( 16 - 16) =      7.30812  eV     1   --> B_1  D_3  S_3  
     e( 17 - 17) =      7.59959  eV     1   --> A_2  D_2  S_2  
     e( 18 - 18) =      7.96618  eV     1   --> B_2  D_4  S_4  
     e( 19 - 19) =      9.09247  eV     1   --> A_1  D_1  S_1  
     e( 20 - 20) =      9.54179  eV     1   --> B_1  D_3  S_3  
     e( 21 - 21) =      9.89053  eV     1   --> A_1  D_1  S_1  
     e( 22 - 22) =     10.20590  eV     1   --> B_1  D_3  S_3  
     e( 23 - 23) =     10.24387  eV     1   --> A_2  D_2  S_2  
     e( 24 - 24) =     10.74439  eV     1   --> B_2  D_4  S_4  
     e( 25 - 25) =     12.16034  eV     1   --> A_2  D_2  S_2  
     e( 26 - 26) =     13.19107  eV     1   --> B_2  D_4  S_4  
     e( 27 - 27) =     14.14283  eV     1   --> A_1  D_1  S_1  
     e( 28 - 28) =     14.59484  eV     1   --> B_1  D_3  S_3  

 **************************************************************************

 **************************************************************************

                    xk=(   0.20833,   0.36084,   0.00000  )

     Band symmetry, C_2v (mm2)  point group:

     e(  1 -  1) =     -1.80880  eV     1   --> A_1  D_1  S_1  
     e(  2 -  2) =     -1.75443  eV     1   --> B_1  D_3  S_3  
     e(  3 -  3) =     -0.86077  eV     1   --> A_2  D_2  S_2  
     e(  4 -  4) =     -0.76671  eV     1   --> B_2  D_4  S_4  
     e(  5 -  5) =      2.40879  eV     1   --> A_1  D_1  S_1  
     e(  6 -  6) =      2.48649  eV     1   --> B_1  D_3  S_3  
     e(  7 -  7) =      3.70390  eV     1   --> A_2  D_2  S_2  
     e(  8 -  8) =      3.71791  eV     1   --> B_2  D_4  S_4  
     e(  9 -  9) =      4.20825  eV     1   --> A_1  D_1  S_1  
     e( 10 - 10) =      4.30596  eV     1   --> A_2  D_2  S_2  
     e( 11 - 11) =      4.38399  eV     1   --> B_1  D_3  S_3  
     e( 12 - 12) =      4.60709  eV     1   --> B_2  D_4  S_4  
     e( 13 - 13) =      5.61324  eV     1   --> A_1  D_1  S_1  
     e( 14 - 14) =      5.74470  eV     1   --> B_1  D_3  S_3  
     e( 15 - 15) =      7.19451  eV     1   --> A_1  D_1  S_1  
     e( 16 - 16) =      7.36601  eV     1   --> B_1  D_3  S_3  
     e( 17 - 17) =      7.57074  eV     1   --> A_2  D_2  S_2  
     e( 18 - 18) =      7.85667  eV     1   --> B_2  D_4  S_4  
     e( 19 - 19) =      9.01698  eV     1   --> A_1  D_1  S_1  
     e( 20 - 20) =      9.51096  eV     1   --> B_1  D_3  S_3  
     e( 21 - 21) =      9.85469  eV     1   --> A_1  D_1  S_1  
     e( 22 - 22) =     10.13710  eV     1   --> B_1  D_3  S_3  
     e( 23 - 23) =     10.18159  eV     1   --> A_2  D_2  S_2  
     e( 24 - 24) =     10.68667  eV     1   --> B_2  D_4  S_4  
     e( 25 - 25) =     12.13542  eV     1   --> A_2  D_2  S_2  
     e( 26 - 26) =     13.25834  eV     1   --> B_2  D_4  S_4  
     e( 27 - 27) =     14.07447  eV     1   --> A_1  D_1  S_1  
     e( 28 - 28) =     14.35516  eV     1   --> B_1  D_3  S_3  

 **************************************************************************

 **************************************************************************

                    xk=(   0.21667,   0.37528,   0.00000  )

     Band symmetry, C_2v (mm2)  point group:

     e(  1 -  1) =     -1.65799  eV     1   --> A_1  D_1  S_1  
     e(  2 -  2) =     -1.60567  eV     1   --> B_1  D_3  S_3  
     e(  3 -  3) =     -0.76456  eV     1   --> A_2  D_2  S_2  
     e(  4 -  4) =     -0.67700  eV     1   --> B_2  D_4  S_4  
     e(  5 -  5) =      2.38557  eV     1   --> A_1  D_1  S_1  
     e(  6 -  6) =      2.45497  eV     1   --> B_1  D_3  S_3  
     e(  7 -  7) =      3.55620  eV     1   --> A_2  D_2  S_2  
     e(  8 -  8) =      3.56850  eV     1   --> B_2  D_4  S_4  
     e(  9 -  9) =      4.27232  eV     1   --> A_1  D_1  S_1  
     e( 10 - 10) =      4.33228  eV     1   --> A_2  D_2  S_2  
     e( 11 - 11) =      4.43248  eV     1   --> B_1  D_3  S_3  
     e( 12 - 12) =      4.62898  eV     1   --> B_2  D_4  S_4  
     e( 13 - 13) =      5.51103  eV     1   --> A_1  D_1  S_1  
     e( 14 - 14) =      5.63966  eV     1   --> B_1  D_3  S_3  
     e( 15 - 15) =      7.26803  eV     1   --> A_1  D_1  S_1  
     e( 16 - 16) =      7.40515  eV     1   --> B_1  D_3  S_3  
     e( 17 - 17) =      7.52884  eV     1   --> A_2  D_2  S_2  
     e( 18 - 18) =      7.74216  eV     1   --> B_2  D_4  S_4  
     e( 19 - 19) =      8.97880  eV     1   --> A_1  D_1  S_1  
     e( 20 - 20) =      9.52398  eV     1   --> B_1  D_3  S_3  
     e( 21 - 21) =      9.82619  eV     1   --> A_1  D_1  S_1  
     e( 22 - 22) =     10.06574  eV     1   --> B_1  D_3  S_3  
     e( 23 - 23) =     10.11621  eV     1   --> A_2  D_2  S_2  
     e( 24 - 24) =     10.62232  eV     1   --> B_2  D_4  S_4  
     e( 25 - 25) =     12.13515  eV     1   --> A_2  D_2  S_2  
     e( 26 - 26) =     13.34377  eV     1   --> B_2  D_4  S_4  
     e( 27 - 27) =     13.98577  eV     1   --> A_1  D_1  S_1  
     e( 28 - 28) =     14.12191  eV     1   --> B_1  D_3  S_3  

 **************************************************************************

 **************************************************************************

                    xk=(   0.22500,   0.38971,   0.00000  )

     Band symmetry, C_2v (mm2)  point group:

     e(  1 -  1) =     -1.50833  eV     1   --> A_1  D_1  S_1  
     e(  2 -  2) =     -1.45829  eV     1   --> B_1  D_3  S_3  
     e(  3 -  3) =     -0.66842  eV     1   --> A_2  D_2  S_2  
     e(  4 -  4) =     -0.58745  eV     1   --> B_2  D_4  S_4  
     e(  5 -  5) =      2.36516  eV     1   --> A_1  D_1  S_1  
     e(  6 -  6) =      2.42816  eV     1   --> B_1  D_3  S_3  
     e(  7 -  7) =      3.40892  eV     1   --> A_2  D_2  S_2  
     e(  8 -  8) =      3.42066  eV     1   --> B_2  D_4  S_4  
     e(  9 -  9) =      4.32379  eV     1   --> A_1  D_1  S_1  
     e( 10 - 10) =      4.36857  eV     1   --> A_2  D_2  S_2  
     e( 11 - 11) =      4.46166  eV     1   --> B_1  D_3  S_3  
     e( 12 - 12) =      4.65934  eV     1   --> B_2  D_4  S_4  
     e( 13 - 13) =      5.41510  eV     1   --> A_1  D_1  S_1  
     e( 14 - 14) =      5.54554  eV     1   --> B_1  D_3  S_3  
     e( 15 - 15) =      7.31366  eV     1   --> A_1  D_1  S_1  
     e( 16 - 16) =      7.42316  eV     1   --> B_1  D_3  S_3  
     e( 17 - 17) =      7.47526  eV     1   --> A_2  D_2  S_2  
     e( 18 - 18) =      7.62435  eV     1   --> B_2  D_4  S_4  
     e( 19 - 19) =      8.98186  eV     1   --> A_1  D_1  S_1  
     e( 20 - 20) =      9.58158  eV     1   --> B_1  D_3  S_3  
     e( 21 - 21) =      9.80200  eV     1   --> A_1  D_1  S_1  
     e( 22 - 22) =      9.98957  eV     1   --> B_1  D_3  S_3  
     e( 23 - 23) =     10.04629  eV     1   --> A_2  D_2  S_2  
     e( 24 - 24) =     10.55230  eV     1   --> B_2  D_4  S_4  
     e( 25 - 25) =     12.16086  eV     1   --> A_2  D_2  S_2  
     e( 26 - 26) =     13.44578  eV     1   --> B_2  D_4  S_4  
     e( 27 - 27) =     13.88164  eV     1   --> A_1  D_1  S_1  
     e( 28 - 28) =     13.89805  eV     1   --> B_1  D_3  S_3  

 **************************************************************************

 **************************************************************************

                    xk=(   0.23333,   0.40415,   0.00000  )

     Band symmetry, C_2v (mm2)  point group:

     e(  1 -  1) =     -1.36129  eV     1   --> A_1  D_1  S_1  
     e(  2 -  2) =     -1.31391  eV     1   --> B_1  D_3  S_3  
     e(  3 -  3) =     -0.57288  eV     1   --> A_2  D_2  S_2  
     e(  4 -  4) =     -0.49860  eV     1   --> B_2  D_4  S_4  
     e(  5 -  5) =      2.34979  eV     1   --> A_1  D_1  S_1  
     e(  6 -  6) =      2.40797  eV     1   --> B_1  D_3  S_3  
     e(  7 -  7) =      3.26368  eV     1   --> A_2  D_2  S_2  
     e(  8 -  8) =      3.27551  eV     1   --> B_2  D_4  S_4  
     e(  9 -  9) =      4.35332  eV     1   --> A_1  D_1  S_1  
     e( 10 - 10) =      4.41383  eV     1   --> A_2  D_2  S_2  
     e( 11 - 11) =      4.46327  eV     1   --> B_1  D_3  S_3  
     e( 12 - 12) =      4.69745  eV     1   --> B_2  D_4  S_4  
     e( 13 - 13) =      5.33392  eV     1   --> A_1  D_1  S_1  
     e( 14 - 14) =      5.47067  eV     1   --> B_1  D_3  S_3  
     e( 15 - 15) =      7.33173  eV     1   --> A_1  D_1  S_1  
     e( 16 - 16) =      7.41173  eV     1   --> A_2  D_2  S_2  
     e( 17 - 17) =      7.42237  eV     1   --> B_1  D_3  S_3  
     e( 18 - 18) =      7.50489  eV     1   --> B_2  D_4  S_4  
     e( 19 - 19) =      9.02376  eV     1   --> A_1  D_1  S_1  
     e( 20 - 20) =      9.67989  eV     1   --> B_1  D_3  S_3  
     e( 21 - 21) =      9.78104  eV     1   --> A_1  D_1  S_1  
     e( 22 - 22) =      9.90741  eV     1   --> B_1  D_3  S_3  
     e( 23 - 23) =      9.97131  eV     1   --> A_2  D_2  S_2  
     e( 24 - 24) =     10.47787  eV     1   --> B_2  D_4  S_4  
     e( 25 - 25) =     12.21243  eV     1   --> A_2  D_2  S_2  
     e( 26 - 26) =     13.56258  eV     1   --> B_2  D_4  S_4  
     e( 27 - 27) =     13.68608  eV     1   --> B_1  D_3  S_3  
     e( 28 - 28) =     13.76877  eV     1   --> A_1  D_1  S_1  

 **************************************************************************

 **************************************************************************

                    xk=(   0.24167,   0.41858,   0.00000  )

     Band symmetry, C_2v (mm2)  point group:

     e(  1 -  1) =     -1.21840  eV     1   --> A_1  D_1  S_1  
     e(  2 -  2) =     -1.17402  eV     1   --> B_1  D_3  S_3  
     e(  3 -  3) =     -0.47863  eV     1   --> A_2  D_2  S_2  
     e(  4 -  4) =     -0.41113  eV     1   --> B_2  D_4  S_4  
     e(  5 -  5) =      2.34166  eV     1   --> A_1  D_1  S_1  
     e(  6 -  6) =      2.39624  eV     1   --> B_1  D_3  S_3  
     e(  7 -  7) =      3.12192  eV     1   --> A_2  D_2  S_2  
     e(  8 -  8) =      3.13420  eV     1   --> B_2  D_4  S_4  
     e(  9 -  9) =      4.35157  eV     1   --> A_1  D_1  S_1  
     e( 10 - 10) =      4.43164  eV     1   --> B_1  D_3  S_3  
     e( 11 - 11) =      4.46720  eV     1   --> A_2  D_2  S_2  
     e( 12 - 12) =      4.74244  eV     1   --> B_2  D_4  S_4  
     e( 13 - 13) =      5.27585  eV     1   --> A_1  D_1  S_1  
     e( 14 - 14) =      5.42020  eV     1   --> B_1  D_3  S_3  
     e( 15 - 15) =      7.32779  eV     1   --> A_1  D_1  S_1  
     e( 16 - 16) =      7.34015  eV     1   --> A_2  D_2  S_2  
     e( 17 - 17) =      7.38537  eV     1   --> B_2  D_4  S_4  
     e( 18 - 18) =      7.40862  eV     1   --> B_1  D_3  S_3  
     e( 19 - 19) =      9.09376  eV     1   --> A_1  D_1  S_1  
     e( 20 - 20) =      9.76619  eV     1   --> A_1  D_1  S_1  
     e( 21 - 21) =      9.79128  eV     1   --> B_1  D_3  S_3  
     e( 22 - 22) =      9.83955  eV     1   --> B_1  D_3  S_3  
     e( 23 - 23) =      9.89179  eV     1   --> A_2  D_2  S_2  
     e( 24 - 24) =     10.40043  eV     1   --> B_2  D_4  S_4  
     e( 25 - 25) =     12.28854  eV     1   --> A_2  D_2  S_2  
     e( 26 - 26) =     13.48801  eV     1   --> B_1  D_3  S_3  
     e( 27 - 27) =     13.65394  eV     1   --> A_1  D_1  S_1  
     e( 28 - 28) =     13.69205  eV     1   --> B_2  D_4  S_4  

 **************************************************************************

 **************************************************************************

                    xk=(   0.25000,   0.43301,   0.00000  )

     Band symmetry, C_2v (mm2)  point group:

     e(  1 -  1) =     -1.08163  eV     1   --> A_1  D_1  S_1  
     e(  2 -  2) =     -1.04068  eV     1   --> B_1  D_3  S_3  
     e(  3 -  3) =     -0.38632  eV     1   --> A_2  D_2  S_2  
     e(  4 -  4) =     -0.32559  eV     1   --> B_2  D_4  S_4  
     e(  5 -  5) =      2.34279  eV     1   --> A_1  D_1  S_1  
     e(  6 -  6) =      2.39466  eV     1   --> B_1  D_3  S_3  
     e(  7 -  7) =      2.98487  eV     1   --> A_2  D_2  S_2  
     e(  8 -  8) =      2.99791  eV     1   --> B_2  D_4  S_4  
     e(  9 -  9) =      4.31319  eV     1   --> A_1  D_1  S_1  
     e( 10 - 10) =      4.36681  eV     1   --> B_1  D_3  S_3  
     e( 11 - 11) =      4.52781  eV     1   --> A_2  D_2  S_2  
     e( 12 - 12) =      4.79340  eV     1   --> B_2  D_4  S_4  
     e( 13 - 13) =      5.24492  eV     1   --> A_1  D_1  S_1  
     e( 14 - 14) =      5.39291  eV     1   --> B_1  D_3  S_3  
     e( 15 - 15) =      7.26253  eV     1   --> A_2  D_2  S_2  
     e( 16 - 16) =      7.26752  eV     1   --> B_2  D_4  S_4  
     e( 17 - 17) =      7.31037  eV     1   --> A_1  D_1  S_1  
     e( 18 - 18) =      7.38897  eV     1   --> B_1  D_3  S_3  
     e( 19 - 19) =      9.17158  eV     1   --> A_1  D_1  S_1  
     e( 20 - 20) =      9.71264  eV     1   --> B_1  D_3  S_3  
     e( 21 - 21) =      9.76800  eV     1   --> A_1  D_1  S_1  
     e( 22 - 22) =      9.80883  eV     1   --> A_2  D_2  S_2  
     e( 23 - 23) =      9.98101  eV     1   --> B_1  D_3  S_3  
     e( 24 - 24) =     10.32142  eV     1   --> B_2  D_4  S_4  
     e( 25 - 25) =     12.38712  eV     1   --> A_2  D_2  S_2  
     e( 26 - 26) =     13.30537  eV     1   --> B_1  D_3  S_3  
     e( 27 - 27) =     13.54251  eV     1   --> A_1  D_1  S_1  
     e( 28 - 28) =     13.83241  eV     1   --> B_2  D_4  S_4  

 **************************************************************************

 **************************************************************************

                    xk=(   0.25833,   0.44745,   0.00000  )

     Band symmetry, C_2v (mm2)  point group:

     e(  1 -  1) =     -0.95275  eV     1   --> A_1  D_1  S_1  
     e(  2 -  2) =     -0.91552  eV     1   --> B_1  D_3  S_3  
     e(  3 -  3) =     -0.29679  eV     1   --> A_2  D_2  S_2  
     e(  4 -  4) =     -0.24285  eV     1   --> B_2  D_4  S_4  
     e(  5 -  5) =      2.35516  eV     1   --> A_1  D_1  S_1  
     e(  6 -  6) =      2.40503  eV     1   --> B_1  D_3  S_3  
     e(  7 -  7) =      2.85377  eV     1   --> A_2  D_2  S_2  
     e(  8 -  8) =      2.86787  eV     1   --> B_2  D_4  S_4  
     e(  9 -  9) =      4.24063  eV     1   --> A_1  D_1  S_1  
     e( 10 - 10) =      4.27470  eV     1   --> B_1  D_3  S_3  
     e( 11 - 11) =      4.59470  eV     1   --> A_2  D_2  S_2  
     e( 12 - 12) =      4.84891  eV     1   --> B_2  D_4  S_4  
     e( 13 - 13) =      5.23772  eV     1   --> A_1  D_1  S_1  
     e( 14 - 14) =      5.38208  eV     1   --> B_1  D_3  S_3  
     e( 15 - 15) =      7.15307  eV     1   --> B_2  D_4  S_4  
     e( 16 - 16) =      7.18096  eV     1   --> A_2  D_2  S_2  
     e( 17 - 17) =      7.28818  eV     1   --> A_1  D_1  S_1  
     e( 18 - 18) =      7.37000  eV     1   --> B_1  D_3  S_3  
     e( 19 - 19) =      9.22822  eV     1   --> A_1  D_1  S_1  
     e( 20 - 20) =      9.60805  eV     1   --> B_1  D_3  S_3  
     e( 21 - 21) =      9.72407  eV     1   --> A_2  D_2  S_2  
     e( 22 - 22) =      9.80693  eV     1   --> A_1  D_1  S_1  
     e( 23 - 23) =     10.16114  eV     1   --> B_1  D_3  S_3  
     e( 24 - 24) =     10.24237  eV     1   --> B_2  D_4  S_4  
     e( 25 - 25) =     12.50577  eV     1   --> A_2  D_2  S_2  
     e( 26 - 26) =     13.13949  eV     1   --> B_1  D_3  S_3  
     e( 27 - 27) =     13.43739  eV     1   --> A_1  D_1  S_1  
     e( 28 - 28) =     13.75501  eV     1   --> A_1  D_1  S_1  

 **************************************************************************

 **************************************************************************

                    xk=(   0.26667,   0.46188,   0.00000  )

     Band symmetry, C_2v (mm2)  point group:

     e(  1 -  1) =     -0.83374  eV     1   --> A_1  D_1  S_1  
     e(  2 -  2) =     -0.80058  eV     1   --> B_1  D_3  S_3  
     e(  3 -  3) =     -0.21100  eV     1   --> A_2  D_2  S_2  
     e(  4 -  4) =     -0.16363  eV     1   --> B_2  D_4  S_4  
     e(  5 -  5) =      2.38057  eV     1   --> A_1  D_1  S_1  
     e(  6 -  6) =      2.42888  eV     1   --> B_1  D_3  S_3  
     e(  7 -  7) =      2.73004  eV     1   --> A_2  D_2  S_2  
     e(  8 -  8) =      2.74536  eV     1   --> B_2  D_4  S_4  
     e(  9 -  9) =      4.14186  eV     1   --> A_1  D_1  S_1  
     e( 10 - 10) =      4.16333  eV     1   --> B_1  D_3  S_3  
     e( 11 - 11) =      4.66663  eV     1   --> A_2  D_2  S_2  
     e( 12 - 12) =      4.90735  eV     1   --> B_2  D_4  S_4  
     e( 13 - 13) =      5.24527  eV     1   --> A_1  D_1  S_1  
     e( 14 - 14) =      5.37897  eV     1   --> B_1  D_3  S_3  
     e( 15 - 15) =      7.04392  eV     1   --> B_2  D_4  S_4  
     e( 16 - 16) =      7.09762  eV     1   --> A_2  D_2  S_2  
     e( 17 - 17) =      7.26810  eV     1   --> A_1  D_1  S_1  
     e( 18 - 18) =      7.35670  eV     1   --> B_1  D_3  S_3  
     e( 19 - 19) =      9.24032  eV     1   --> A_1  D_1  S_1  
     e( 20 - 20) =      9.49787  eV     1   --> B_1  D_3  S_3  
     e( 21 - 21) =      9.63935  eV     1   --> A_2  D_2  S_2  
     e( 22 - 22) =      9.90026  eV     1   --> A_1  D_1  S_1  
     e( 23 - 23) =     10.16474  eV     1   --> B_2  D_4  S_4  
     e( 24 - 24) =     10.35400  eV     1   --> B_1  D_3  S_3  
     e( 25 - 25) =     12.64191  eV     1   --> A_2  D_2  S_2  
     e( 26 - 26) =     12.99171  eV     1   --> B_1  D_3  S_3  
     e( 27 - 27) =     13.33721  eV     1   --> A_1  D_1  S_1  
     e( 28 - 28) =     13.54150  eV     1   --> A_1  D_1  S_1  

 **************************************************************************

 **************************************************************************

                    xk=(   0.27500,   0.47631,   0.00000  )

     Band symmetry, C_2v (mm2)  point group:

     e(  1 -  1) =     -0.72663  eV     1   --> A_1  D_1  S_1  
     e(  2 -  2) =     -0.69781  eV     1   --> B_1  D_3  S_3  
     e(  3 -  3) =     -0.12995  eV     1   --> A_2  D_2  S_2  
     e(  4 -  4) =     -0.08940  eV     1   --> B_2  D_4  S_4  
     e(  5 -  5) =      2.42047  eV     1   --> A_1  D_1  S_1  
     e(  6 -  6) =      2.46741  eV     1   --> B_1  D_3  S_3  
     e(  7 -  7) =      2.61503  eV     1   --> A_2  D_2  S_2  
     e(  8 -  8) =      2.63180  eV     1   --> B_2  D_4  S_4  
     e(  9 -  9) =      4.02567  eV     1   --> A_1  D_1  S_1  
     e( 10 - 10) =      4.03976  eV     1   --> B_1  D_3  S_3  
     e( 11 - 11) =      4.74202  eV     1   --> A_2  D_2  S_2  
     e( 12 - 12) =      4.96656  eV     1   --> B_2  D_4  S_4  
     e( 13 - 13) =      5.25829  eV     1   --> A_1  D_1  S_1  
     e( 14 - 14) =      5.37640  eV     1   --> B_1  D_3  S_3  
     e( 15 - 15) =      6.94214  eV     1   --> B_2  D_4  S_4  
     e( 16 - 16) =      7.01458  eV     1   --> A_2  D_2  S_2  
     e( 17 - 17) =      7.25467  eV     1   --> A_1  D_1  S_1  
     e( 18 - 18) =      7.35198  eV     1   --> B_1  D_3  S_3  
     e( 19 - 19) =      9.21002  eV     1   --> A_1  D_1  S_1  
     e( 20 - 20) =      9.38546  eV     1   --> B_1  D_3  S_3  
     e( 21 - 21) =      9.55657  eV     1   --> A_2  D_2  S_2  
     e( 22 - 22) =     10.04269  eV     1   --> A_1  D_1  S_1  
     e( 23 - 23) =     10.08994  eV     1   --> B_2  D_4  S_4  
     e( 24 - 24) =     10.55144  eV     1   --> B_1  D_3  S_3  
     e( 25 - 25) =     12.79272  eV     1   --> A_2  D_2  S_2  
     e( 26 - 26) =     12.86406  eV     1   --> B_1  D_3  S_3  
     e( 27 - 27) =     13.22633  eV     1   --> A_1  D_1  S_1  
     e( 28 - 28) =     13.35441  eV     1   --> A_1  D_1  S_1  

 **************************************************************************

 **************************************************************************

                    xk=(   0.28333,   0.49075,   0.00000  )

     Band symmetry, C_2v (mm2)  point group:

     e(  1 -  1) =     -0.63287  eV     1   --> A_1  D_1  S_1  
     e(  2 -  2) =     -0.60859  eV     1   --> B_1  D_3  S_3  
     e(  3 -  3) =     -0.05519  eV     1   --> A_2  D_2  S_2  
     e(  4 -  4) =     -0.02099  eV     1   --> B_2  D_4  S_4  
     e(  5 -  5) =      2.47603  eV     1   --> A_1  D_1  S_1  
     e(  6 -  6) =      2.51039  eV     1   --> A_2  D_2  S_2  
     e(  7 -  7) =      2.52148  eV     1   --> B_1  D_3  S_3  
     e(  8 -  8) =      2.52871  eV     1   --> B_2  D_4  S_4  
     e(  9 -  9) =      3.89901  eV     1   --> A_1  D_1  S_1  
     e( 10 - 10) =      3.90938  eV     1   --> B_1  D_3  S_3  
     e( 11 - 11) =      4.81897  eV     1   --> A_2  D_2  S_2  
     e( 12 - 12) =      5.02395  eV     1   --> B_2  D_4  S_4  
     e( 13 - 13) =      5.27030  eV     1   --> A_1  D_1  S_1  
     e( 14 - 14) =      5.37000  eV     1   --> B_1  D_3  S_3  
     e( 15 - 15) =      6.85009  eV     1   --> B_2  D_4  S_4  
     e( 16 - 16) =      6.93406  eV     1   --> A_2  D_2  S_2  
     e( 17 - 17) =      7.25003  eV     1   --> A_1  D_1  S_1  
     e( 18 - 18) =      7.35671  eV     1   --> B_1  D_3  S_3  
     e( 19 - 19) =      9.15422  eV     1   --> A_1  D_1  S_1  
     e( 20 - 20) =      9.27447  eV     1   --> B_1  D_3  S_3  
     e( 21 - 21) =      9.47770  eV     1   --> A_2  D_2  S_2  
     e( 22 - 22) =     10.01943  eV     1   --> B_2  D_4  S_4  
     e( 23 - 23) =     10.21684  eV     1   --> A_1  D_1  S_1  
     e( 24 - 24) =     10.74505  eV     1   --> B_1  D_3  S_3  
     e( 25 - 25) =     12.75997  eV     1   --> B_1  D_3  S_3  
     e( 26 - 26) =     12.95555  eV     1   --> A_2  D_2  S_2  
     e( 27 - 27) =     13.06538  eV     1   --> A_1  D_1  S_1  
     e( 28 - 28) =     13.23314  eV     1   --> A_1  D_1  S_1  

 **************************************************************************

 **************************************************************************

                    xk=(   0.29167,   0.50518,   0.00000  )

     Band symmetry, C_2v (mm2)  point group:

     e(  1 -  1) =     -0.55375  eV     1   --> A_1  D_1  S_1  
     e(  2 -  2) =     -0.53410  eV     1   --> B_1  D_3  S_3  
     e(  3 -  3) =      0.01213  eV     1   --> A_2  D_2  S_2  
     e(  4 -  4) =      0.03971  eV     1   --> B_2  D_4  S_4  
     e(  5 -  5) =      2.41779  eV     1   --> A_2  D_2  S_2  
     e(  6 -  6) =      2.43781  eV     1   --> B_2  D_4  S_4  
     e(  7 -  7) =      2.54764  eV     1   --> A_1  D_1  S_1  
     e(  8 -  8) =      2.59122  eV     1   --> B_1  D_3  S_3  
     e(  9 -  9) =      3.76663  eV     1   --> A_1  D_1  S_1  
     e( 10 - 10) =      3.77576  eV     1   --> B_1  D_3  S_3  
     e( 11 - 11) =      4.89514  eV     1   --> A_2  D_2  S_2  
     e( 12 - 12) =      5.07648  eV     1   --> B_2  D_4  S_4  
     e( 13 - 13) =      5.27789  eV     1   --> A_1  D_1  S_1  
     e( 14 - 14) =      5.35816  eV     1   --> B_1  D_3  S_3  
     e( 15 - 15) =      6.77043  eV     1   --> B_2  D_4  S_4  
     e( 16 - 16) =      6.85840  eV     1   --> A_2  D_2  S_2  
     e( 17 - 17) =      7.25397  eV     1   --> A_1  D_1  S_1  
     e( 18 - 18) =      7.36967  eV     1   --> B_1  D_3  S_3  
     e( 19 - 19) =      9.08744  eV     1   --> A_1  D_1  S_1  
     e( 20 - 20) =      9.16930  eV     1   --> B_1  D_3  S_3  
     e( 21 - 21) =      9.40475  eV     1   --> A_2  D_2  S_2  
     e( 22 - 22) =      9.95484  eV     1   --> B_2  D_4  S_4  
     e( 23 - 23) =     10.40856  eV     1   --> A_1  D_1  S_1  
     e( 24 - 24) =     10.92446  eV     1   --> B_1  D_3  S_3  
     e( 25 - 25) =     12.68535  eV     1   --> B_1  D_3  S_3  
     e( 26 - 26) =     12.87653  eV     1   --> A_1  D_1  S_1  
     e( 27 - 27) =     13.12772  eV     1   --> A_2  D_2  S_2  
     e( 28 - 28) =     13.15548  eV     1   --> A_1  D_1  S_1  

 **************************************************************************

 **************************************************************************

                    xk=(   0.30000,   0.51962,   0.00000  )

     Band symmetry, C_2v (mm2)  point group:

     e(  1 -  1) =     -0.49022  eV     1   --> A_1  D_1  S_1  
     e(  2 -  2) =     -0.47498  eV     1   --> B_1  D_3  S_3  
     e(  3 -  3) =      0.07012  eV     1   --> A_2  D_2  S_2  
     e(  4 -  4) =      0.09140  eV     1   --> B_2  D_4  S_4  
     e(  5 -  5) =      2.33902  eV     1   --> A_2  D_2  S_2  
     e(  6 -  6) =      2.36080  eV     1   --> B_2  D_4  S_4  
     e(  7 -  7) =      2.63494  eV     1   --> A_1  D_1  S_1  
     e(  8 -  8) =      2.67590  eV     1   --> B_1  D_3  S_3  
     e(  9 -  9) =      3.63177  eV     1   --> A_1  D_1  S_1  
     e( 10 - 10) =      3.64147  eV     1   --> B_1  D_3  S_3  
     e( 11 - 11) =      4.96776  eV     1   --> A_2  D_2  S_2  
     e( 12 - 12) =      5.12066  eV     1   --> B_2  D_4  S_4  
     e( 13 - 13) =      5.28009  eV     1   --> A_1  D_1  S_1  
     e( 14 - 14) =      5.34123  eV     1   --> B_1  D_3  S_3  
     e( 15 - 15) =      6.70583  eV     1   --> B_2  D_4  S_4  
     e( 16 - 16) =      6.78993  eV     1   --> A_2  D_2  S_2  
     e( 17 - 17) =      7.26436  eV     1   --> A_1  D_1  S_1  
     e( 18 - 18) =      7.38796  eV     1   --> B_1  D_3  S_3  
     e( 19 - 19) =      9.02022  eV     1   --> A_1  D_1  S_1  
     e( 20 - 20) =      9.07440  eV     1   --> B_1  D_3  S_3  
     e( 21 - 21) =      9.33979  eV     1   --> A_2  D_2  S_2  
     e( 22 - 22) =      9.89775  eV     1   --> B_2  D_4  S_4  
     e( 23 - 23) =     10.60805  eV     1   --> A_1  D_1  S_1  
     e( 24 - 24) =     11.07675  eV     1   --> B_1  D_3  S_3  
     e( 25 - 25) =     12.64904  eV     1   --> B_1  D_3  S_3  
     e( 26 - 26) =     12.68942  eV     1   --> A_1  D_1  S_1  
[...]
     e(  4 -  4) =     -1.91601  eV     1   --> B_2  D_4  S_4  
     e(  5 -  5) =      1.88308  eV     1   --> A_1  D_1  S_1  
     e(  6 -  6) =      2.24361  eV     1   --> A_1  D_1  S_1  
     e(  7 -  7) =      4.44095  eV     1   --> A_1  D_1  S_1  
     e(  8 -  8) =      4.45916  eV     1   --> A_1  D_1  S_1  
     e(  9 -  9) =      4.82531  eV     1   --> B_2  D_4  S_4  
     e( 10 - 10) =      5.22189  eV     1   --> B_1  D_3  S_3  
     e( 11 - 11) =      5.22235  eV     1   --> B_1  D_3  S_3  
     e( 12 - 12) =      5.26165  eV     1   --> B_2  D_4  S_4  
     e( 13 - 13) =      5.74995  eV     1   --> A_2  D_2  S_2  
     e( 14 - 14) =      5.75167  eV     1   --> A_2  D_2  S_2  
     e( 15 - 15) =      6.27341  eV     1   --> A_1  D_1  S_1  
     e( 16 - 16) =      6.73260  eV     1   --> B_2  D_4  S_4  
     e( 17 - 17) =      7.41686  eV     1   --> A_1  D_1  S_1  
     e( 18 - 18) =      8.01306  eV     1   --> B_2  D_4  S_4  
     e( 19 - 19) =     11.66300  eV     1   --> A_1  D_1  S_1  
     e( 20 - 20) =     11.83497  eV     1   --> B_2  D_4  S_4  
     e( 21 - 21) =     11.85491  eV     1   --> A_1  D_1  S_1  
     e( 22 - 22) =     11.87432  eV     1   --> B_2  D_4  S_4  
     e( 23 - 23) =     12.56647  eV     1   --> B_1  D_3  S_3  
     e( 24 - 24) =     12.64900  eV     1   --> B_1  D_3  S_3  
     e( 25 - 25) =     13.05368  eV     1   --> A_2  D_2  S_2  
     e( 26 - 26) =     13.11751  eV     1   --> A_2  D_2  S_2  
     e( 27 - 27) =     13.61890  eV     1   --> A_1  D_1  S_1  
     e( 28 - 28) =     14.27667  eV     1   --> B_2  D_4  S_4  

 **************************************************************************

 **************************************************************************

                    xk=(   0.11667,   0.06736,   0.00000  )

     Band symmetry, C_2v (mm2)  point group:

     e(  1 -  1) =     -3.79353  eV     1   --> A_1  D_1  S_1  
     e(  2 -  2) =     -3.73058  eV     1   --> A_1  D_1  S_1  
     e(  3 -  3) =     -2.13823  eV     1   --> B_2  D_4  S_4  
     e(  4 -  4) =     -1.96524  eV     1   --> B_2  D_4  S_4  
     e(  5 -  5) =      1.81663  eV     1   --> A_1  D_1  S_1  
     e(  6 -  6) =      2.18310  eV     1   --> A_1  D_1  S_1  
     e(  7 -  7) =      4.52825  eV     1   --> A_1  D_1  S_1  
     e(  8 -  8) =      4.54158  eV     1   --> A_1  D_1  S_1  
     e(  9 -  9) =      4.93288  eV     1   --> B_2  D_4  S_4  
     e( 10 - 10) =      5.14111  eV     1   --> B_1  D_3  S_3  
     e( 11 - 11) =      5.14150  eV     1   --> B_1  D_3  S_3  
     e( 12 - 12) =      5.38781  eV     1   --> B_2  D_4  S_4  
     e( 13 - 13) =      5.80657  eV     1   --> A_2  D_2  S_2  
     e( 14 - 14) =      5.80810  eV     1   --> A_2  D_2  S_2  
     e( 15 - 15) =      6.24848  eV     1   --> A_1  D_1  S_1  
     e( 16 - 16) =      6.63634  eV     1   --> B_2  D_4  S_4  
     e( 17 - 17) =      7.43032  eV     1   --> A_1  D_1  S_1  
     e( 18 - 18) =      7.91287  eV     1   --> B_2  D_4  S_4  
     e( 19 - 19) =     11.96313  eV     1   --> A_1  D_1  S_1  
     e( 20 - 20) =     12.00707  eV     1   --> B_2  D_4  S_4  
     e( 21 - 21) =     12.03435  eV     1   --> B_2  D_4  S_4  
     e( 22 - 22) =     12.14506  eV     1   --> A_1  D_1  S_1  
     e( 23 - 23) =     12.73227  eV     1   --> B_1  D_3  S_3  
     e( 24 - 24) =     12.81330  eV     1   --> B_1  D_3  S_3  
     e( 25 - 25) =     13.00844  eV     1   --> A_2  D_2  S_2  
     e( 26 - 26) =     13.06240  eV     1   --> A_2  D_2  S_2  
     e( 27 - 27) =     13.58736  eV     1   --> A_1  D_1  S_1  
     e( 28 - 28) =     14.18689  eV     1   --> B_2  D_4  S_4  

 **************************************************************************

 **************************************************************************

                    xk=(   0.10000,   0.05774,   0.00000  )

     Band symmetry, C_2v (mm2)  point group:

     e(  1 -  1) =     -3.86274  eV     1   --> A_1  D_1  S_1  
     e(  2 -  2) =     -3.79984  eV     1   --> A_1  D_1  S_1  
     e(  3 -  3) =     -2.18375  eV     1   --> B_2  D_4  S_4  
     e(  4 -  4) =     -2.00823  eV     1   --> B_2  D_4  S_4  
     e(  5 -  5) =      1.75690  eV     1   --> A_1  D_1  S_1  
     e(  6 -  6) =      2.12789  eV     1   --> A_1  D_1  S_1  
     e(  7 -  7) =      4.61049  eV     1   --> A_1  D_1  S_1  
     e(  8 -  8) =      4.61999  eV     1   --> A_1  D_1  S_1  
     e(  9 -  9) =      5.04154  eV     1   --> B_2  D_4  S_4  
     e( 10 - 10) =      5.07063  eV     1   --> B_1  D_3  S_3  
     e( 11 - 11) =      5.07099  eV     1   --> B_1  D_3  S_3  
     e( 12 - 12) =      5.51274  eV     1   --> B_2  D_4  S_4  
     e( 13 - 13) =      5.85824  eV     1   --> A_2  D_2  S_2  
     e( 14 - 14) =      5.85957  eV     1   --> A_2  D_2  S_2  
     e( 15 - 15) =      6.22463  eV     1   --> A_1  D_1  S_1  
     e( 16 - 16) =      6.53451  eV     1   --> B_2  D_4  S_4  
     e( 17 - 17) =      7.43878  eV     1   --> A_1  D_1  S_1  
     e( 18 - 18) =      7.80173  eV     1   --> B_2  D_4  S_4  
     e( 19 - 19) =     12.17632  eV     1   --> B_2  D_4  S_4  
     e( 20 - 20) =     12.20323  eV     1   --> B_2  D_4  S_4  
     e( 21 - 21) =     12.25490  eV     1   --> A_1  D_1  S_1  
     e( 22 - 22) =     12.42954  eV     1   --> A_1  D_1  S_1  
     e( 23 - 23) =     12.89265  eV     1   --> B_1  D_3  S_3  
     e( 24 - 24) =     12.96449  eV     1   --> A_2  D_2  S_2  
     e( 25 - 25) =     12.97168  eV     1   --> B_1  D_3  S_3  
     e( 26 - 26) =     13.00935  eV     1   --> A_2  D_2  S_2  
     e( 27 - 27) =     13.55559  eV     1   --> A_1  D_1  S_1  
     e( 28 - 28) =     14.10296  eV     1   --> B_2  D_4  S_4  

 **************************************************************************

 **************************************************************************

                    xk=(   0.08333,   0.04811,   0.00000  )

     Band symmetry, C_2v (mm2)  point group:

     e(  1 -  1) =     -3.92160  eV     1   --> A_1  D_1  S_1  
     e(  2 -  2) =     -3.85875  eV     1   --> A_1  D_1  S_1  
     e(  3 -  3) =     -2.22260  eV     1   --> B_2  D_4  S_4  
     e(  4 -  4) =     -2.04494  eV     1   --> B_2  D_4  S_4  
     e(  5 -  5) =      1.70493  eV     1   --> A_1  D_1  S_1  
     e(  6 -  6) =      2.07935  eV     1   --> A_1  D_1  S_1  
     e(  7 -  7) =      4.68511  eV     1   --> A_1  D_1  S_1  
     e(  8 -  8) =      4.69158  eV     1   --> A_1  D_1  S_1  
     e(  9 -  9) =      5.01075  eV     1   --> B_1  D_3  S_3  
     e( 10 - 10) =      5.01103  eV     1   --> B_1  D_3  S_3  
     e( 11 - 11) =      5.15050  eV     1   --> B_2  D_4  S_4  
     e( 12 - 12) =      5.63430  eV     1   --> B_2  D_4  S_4  
     e( 13 - 13) =      5.90391  eV     1   --> A_2  D_2  S_2  
     e( 14 - 14) =      5.90512  eV     1   --> A_2  D_2  S_2  
     e( 15 - 15) =      6.20288  eV     1   --> A_1  D_1  S_1  
     e( 16 - 16) =      6.42917  eV     1   --> B_2  D_4  S_4  
     e( 17 - 17) =      7.44372  eV     1   --> A_1  D_1  S_1  
     e( 18 - 18) =      7.68573  eV     1   --> B_2  D_4  S_4  
     e( 19 - 19) =     12.34035  eV     1   --> B_2  D_4  S_4  
     e( 20 - 20) =     12.36810  eV     1   --> B_2  D_4  S_4  
     e( 21 - 21) =     12.53065  eV     1   --> A_1  D_1  S_1  
     e( 22 - 22) =     12.70014  eV     1   --> A_1  D_1  S_1  
     e( 23 - 23) =     12.92368  eV     1   --> A_2  D_2  S_2  
     e( 24 - 24) =     12.96021  eV     1   --> A_2  D_2  S_2  
     e( 25 - 25) =     13.04406  eV     1   --> B_1  D_3  S_3  
     e( 26 - 26) =     13.12059  eV     1   --> B_1  D_3  S_3  
     e( 27 - 27) =     13.52584  eV     1   --> A_1  D_1  S_1  
     e( 28 - 28) =     14.02806  eV     1   --> B_2  D_4  S_4  

 **************************************************************************

 **************************************************************************

                    xk=(   0.06667,   0.03849,   0.00000  )

     Band symmetry, C_2v (mm2)  point group:

     e(  1 -  1) =     -3.96999  eV     1   --> A_1  D_1  S_1  
     e(  2 -  2) =     -3.90717  eV     1   --> A_1  D_1  S_1  
     e(  3 -  3) =     -2.25456  eV     1   --> B_2  D_4  S_4  
     e(  4 -  4) =     -2.07507  eV     1   --> B_2  D_4  S_4  
     e(  5 -  5) =      1.66150  eV     1   --> A_1  D_1  S_1  
     e(  6 -  6) =      2.03846  eV     1   --> A_1  D_1  S_1  
     e(  7 -  7) =      4.74988  eV     1   --> A_1  D_1  S_1  
     e(  8 -  8) =      4.75396  eV     1   --> A_1  D_1  S_1  
     e(  9 -  9) =      4.96156  eV     1   --> B_1  D_3  S_3  
     e( 10 - 10) =      4.96180  eV     1   --> B_1  D_3  S_3  
     e( 11 - 11) =      5.25855  eV     1   --> B_2  D_4  S_4  
     e( 12 - 12) =      5.74932  eV     1   --> B_2  D_4  S_4  
     e( 13 - 13) =      5.94272  eV     1   --> A_2  D_2  S_2  
     e( 14 - 14) =      5.94381  eV     1   --> A_2  D_2  S_2  
     e( 15 - 15) =      6.18402  eV     1   --> A_1  D_1  S_1  
     e( 16 - 16) =      6.32272  eV     1   --> B_2  D_4  S_4  
     e( 17 - 17) =      7.44626  eV     1   --> A_1  D_1  S_1  
     e( 18 - 18) =      7.57136  eV     1   --> B_2  D_4  S_4  
     e( 19 - 19) =     12.49313  eV     1   --> B_2  D_4  S_4  
     e( 20 - 20) =     12.51908  eV     1   --> B_2  D_4  S_4  
     e( 21 - 21) =     12.78051  eV     1   --> A_1  D_1  S_1  
     e( 22 - 22) =     12.88787  eV     1   --> A_2  D_2  S_2  
     e( 23 - 23) =     12.91673  eV     1   --> A_2  D_2  S_2  
     e( 24 - 24) =     12.94740  eV     1   --> A_1  D_1  S_1  
     e( 25 - 25) =     13.18175  eV     1   --> B_1  D_3  S_3  
     e( 26 - 26) =     13.25531  eV     1   --> B_1  D_3  S_3  
     e( 27 - 27) =     13.50160  eV     1   --> A_1  D_1  S_1  
     e( 28 - 28) =     13.96432  eV     1   --> B_2  D_4  S_4  

 **************************************************************************

 **************************************************************************

                    xk=(   0.05000,   0.02887,   0.00000  )

     Band symmetry, C_2v (mm2)  point group:

     e(  1 -  1) =     -4.00773  eV     1   --> A_1  D_1  S_1  
     e(  2 -  2) =     -3.94500  eV     1   --> A_1  D_1  S_1  
     e(  3 -  3) =     -2.27956  eV     1   --> B_2  D_4  S_4  
     e(  4 -  4) =     -2.09866  eV     1   --> B_2  D_4  S_4  
     e(  5 -  5) =      1.62720  eV     1   --> A_1  D_1  S_1  
     e(  6 -  6) =      2.00597  eV     1   --> A_1  D_1  S_1  
     e(  7 -  7) =      4.80265  eV     1   --> A_1  D_1  S_1  
     e(  8 -  8) =      4.80492  eV     1   --> A_1  D_1  S_1  
     e(  9 -  9) =      4.92320  eV     1   --> B_1  D_3  S_3  
     e( 10 - 10) =      4.92336  eV     1   --> B_1  D_3  S_3  
     e( 11 - 11) =      5.36318  eV     1   --> B_2  D_4  S_4  
     e( 12 - 12) =      5.85282  eV     1   --> B_2  D_4  S_4  
     e( 13 - 13) =      5.97385  eV     1   --> A_2  D_2  S_2  
     e( 14 - 14) =      5.97484  eV     1   --> A_2  D_2  S_2  
     e( 15 - 15) =      6.16869  eV     1   --> A_1  D_1  S_1  
     e( 16 - 16) =      6.21847  eV     1   --> B_2  D_4  S_4  
     e( 17 - 17) =      7.44735  eV     1   --> A_1  D_1  S_1  
     e( 18 - 18) =      7.46599  eV     1   --> B_2  D_4  S_4  
     e( 19 - 19) =     12.62613  eV     1   --> B_2  D_4  S_4  
     e( 20 - 20) =     12.64777  eV     1   --> B_2  D_4  S_4  
     e( 21 - 21) =     12.85865  eV     1   --> A_2  D_2  S_2  
     e( 22 - 22) =     12.88051  eV     1   --> A_2  D_2  S_2  
     e( 23 - 23) =     12.99061  eV     1   --> A_1  D_1  S_1  
     e( 24 - 24) =     13.16029  eV     1   --> A_1  D_1  S_1  
     e( 25 - 25) =     13.29986  eV     1   --> B_1  D_3  S_3  
     e( 26 - 26) =     13.37019  eV     1   --> B_1  D_3  S_3  
     e( 27 - 27) =     13.48865  eV     1   --> A_1  D_1  S_1  
     e( 28 - 28) =     13.91321  eV     1   --> B_2  D_4  S_4  

 **************************************************************************

 **************************************************************************

                    xk=(   0.03333,   0.01925,   0.00000  )

     Band symmetry, C_2v (mm2)  point group:

     e(  1 -  1) =     -4.03476  eV     1   --> A_1  D_1  S_1  
     e(  2 -  2) =     -3.97212  eV     1   --> A_1  D_1  S_1  
     e(  3 -  3) =     -2.29754  eV     1   --> B_2  D_4  S_4  
     e(  4 -  4) =     -2.11544  eV     1   --> B_2  D_4  S_4  
     e(  5 -  5) =      1.60243  eV     1   --> A_1  D_1  S_1  
     e(  6 -  6) =      1.98242  eV     1   --> A_1  D_1  S_1  
     e(  7 -  7) =      4.84163  eV     1   --> A_1  D_1  S_1  
     e(  8 -  8) =      4.84271  eV     1   --> A_1  D_1  S_1  
     e(  9 - 10) =      4.89573  eV     2   -->   2 B_1  D_3  S_3  
     e( 11 - 11) =      5.45915  eV     1   --> B_2  D_4  S_4  
     e( 12 - 12) =      5.93783  eV     1   --> B_2  D_4  S_4  
     e( 13 - 13) =      5.99663  eV     1   --> A_2  D_2  S_2  
     e( 14 - 14) =      5.99752  eV     1   --> A_2  D_2  S_2  
     e( 15 - 15) =      6.12232  eV     1   --> B_2  D_4  S_4  
     e( 16 - 16) =      6.15742  eV     1   --> A_1  D_1  S_1  
     e( 17 - 17) =      7.37861  eV     1   --> B_2  D_4  S_4  
     e( 18 - 18) =      7.44764  eV     1   --> A_1  D_1  S_1  
     e( 19 - 19) =     12.73044  eV     1   --> B_2  D_4  S_4  
     e( 20 - 20) =     12.74639  eV     1   --> B_2  D_4  S_4  
     e( 21 - 21) =     12.83740  eV     1   --> A_2  D_2  S_2  
     e( 22 - 22) =     12.85297  eV     1   --> A_2  D_2  S_2  
     e( 23 - 23) =     13.14206  eV     1   --> A_1  D_1  S_1  
     e( 24 - 24) =     13.32648  eV     1   --> A_1  D_1  S_1  
     e( 25 - 25) =     13.39162  eV     1   --> B_1  D_3  S_3  
     e( 26 - 26) =     13.45886  eV     1   --> B_1  D_3  S_3  
     e( 27 - 27) =     13.49510  eV     1   --> A_1  D_1  S_1  
     e( 28 - 28) =     13.87580  eV     1   --> B_2  D_4  S_4  

 **************************************************************************

 **************************************************************************

                    xk=(   0.01667,   0.00962,   0.00000  )

     Band symmetry, C_2v (mm2)  point group:

     e(  1 -  1) =     -4.05099  eV     1   --> A_1  D_1  S_1  
     e(  2 -  2) =     -3.98830  eV     1   --> A_1  D_1  S_1  
     e(  3 -  3) =     -2.30830  eV     1   --> B_2  D_4  S_4  
     e(  4 -  4) =     -2.12560  eV     1   --> B_2  D_4  S_4  
     e(  5 -  5) =      1.58746  eV     1   --> A_1  D_1  S_1  
     e(  6 -  6) =      1.96818  eV     1   --> A_1  D_1  S_1  
     e(  7 -  7) =      4.86566  eV     1   --> A_1  D_1  S_1  
     e(  8 -  8) =      4.86593  eV     1   --> A_1  D_1  S_1  
     e(  9 - 10) =      4.87926  eV     2   -->   2 B_1  D_3  S_3  
     e( 11 - 11) =      5.53437  eV     1   --> B_2  D_4  S_4  
     e( 12 - 12) =      5.99489  eV     1   --> B_2  D_4  S_4  
     e( 13 - 13) =      6.01048  eV     1   --> A_2  D_2  S_2  
     e( 14 - 14) =      6.01138  eV     1   --> A_2  D_2  S_2  
     e( 15 - 15) =      6.04693  eV     1   --> B_2  D_4  S_4  
     e( 16 - 16) =      6.15051  eV     1   --> A_1  D_1  S_1  
     e( 17 - 17) =      7.31961  eV     1   --> B_2  D_4  S_4  
     e( 18 - 18) =      7.44764  eV     1   --> A_1  D_1  S_1  
     e( 19 - 19) =     12.79759  eV     1   --> B_2  D_4  S_4  
     e( 20 - 20) =     12.80819  eV     1   --> B_2  D_4  S_4  
     e( 21 - 21) =     12.82492  eV     1   --> A_2  D_2  S_2  
     e( 22 - 22) =     12.83532  eV     1   --> A_2  D_2  S_2  
     e( 23 - 23) =     13.22198  eV     1   --> A_1  D_1  S_1  
     e( 24 - 24) =     13.43337  eV     1   --> A_1  D_1  S_1  
     e( 25 - 25) =     13.45024  eV     1   --> B_1  D_3  S_3  
     e( 26 - 26) =     13.51517  eV     1   --> B_1  D_3  S_3  
     e( 27 - 27) =     13.51964  eV     1   --> A_1  D_1  S_1  
     e( 28 - 28) =     13.85296  eV     1   --> B_2  D_4  S_4  

 **************************************************************************

 **************************************************************************

                    xk=(   0.00000,   0.00000,   0.00000  )

     point group D_6h(6/mmm)
     there are 12 classes
     the character table:

       E     2C6   2C3   C2    3C2'  3C2'' i     2S3   2S6   s_h   3s_d  3s_v 
A_1g   1.00  1.00  1.00  1.00  1.00  1.00  1.00  1.00  1.00  1.00  1.00  1.00
A_2g   1.00  1.00  1.00  1.00 -1.00 -1.00  1.00  1.00  1.00  1.00 -1.00 -1.00
B_1g   1.00 -1.00  1.00 -1.00  1.00 -1.00  1.00 -1.00  1.00 -1.00  1.00 -1.00
B_2g   1.00 -1.00  1.00 -1.00 -1.00  1.00  1.00 -1.00  1.00 -1.00 -1.00  1.00
E_1g   2.00  1.00 -1.00 -2.00  0.00  0.00  2.00  1.00 -1.00 -2.00  0.00  0.00
E_2g   2.00 -1.00 -1.00  2.00  0.00  0.00  2.00 -1.00 -1.00  2.00  0.00  0.00
A_1u   1.00  1.00  1.00  1.00  1.00  1.00 -1.00 -1.00 -1.00 -1.00 -1.00 -1.00
A_2u   1.00  1.00  1.00  1.00 -1.00 -1.00 -1.00 -1.00 -1.00 -1.00  1.00  1.00
B_1u   1.00 -1.00  1.00 -1.00  1.00 -1.00 -1.00  1.00 -1.00  1.00 -1.00  1.00
B_2u   1.00 -1.00  1.00 -1.00 -1.00  1.00 -1.00  1.00 -1.00  1.00  1.00 -1.00
E_1u   2.00  1.00 -1.00 -2.00  0.00  0.00 -2.00 -1.00  1.00  2.00  0.00  0.00
E_2u   2.00 -1.00 -1.00  2.00  0.00  0.00 -2.00  1.00  1.00 -2.00  0.00  0.00

     the symmetry operations in each class and the name of the first element:

     E        1
                                                                 
     2C6      5    6
                                                                 
     2C3      7    8
                                                                 
     C2       2
                                                                 
     3C2'     4   12   11
                                                                 
     3C2''    3    9   10
                                                                 
     i       13
                                                                 
     2S3     17   18
                                                                 
     2S6     19   20
                                                                 
     s_h     14
                                                                 
     3s_d    16   24   23
                                                                 
     3s_v    15   21   22
                                                                 

     Band symmetry, D_6h(6/mmm) point group:

     e(  1 -  1) =     -4.05640  eV     1   --> A_1g           
     e(  2 -  2) =     -3.99368  eV     1   --> B_2u           
     e(  3 -  3) =     -2.31185  eV     1   --> B_1g           
     e(  4 -  4) =     -2.12891  eV     1   --> A_2u           
     e(  5 -  5) =      1.58246  eV     1   --> A_1g           
     e(  6 -  6) =      1.96344  eV     1   --> B_2u           
     e(  7 - 10) =      4.87378  eV     4   --> E_2g           
     e(  7 - 10) =      4.87378  eV     4   --> E_1u           
     e( 11 - 11) =      5.56514  eV     1   --> B_1g           
     e( 12 - 13) =      6.01514  eV     2   --> E_1g           
     e( 14 - 15) =      6.01602  eV     2   --> E_2u           
     e( 16 - 16) =      6.14821  eV     1   --> A_1g           
     e( 17 - 17) =      7.29857  eV     1   --> A_2u           
     e( 18 - 18) =      7.44763  eV     1   --> B_2u           
     e( 19 - 20) =     12.82100  eV     2   --> E_1g           
     e( 21 - 22) =     12.82903  eV     2   --> E_2u           
     e( 23 - 23) =     13.24405  eV     1   --> A_1g           
     e( 24 - 25) =     13.47043  eV     2   --> E_2g           
     e( 26 - 27) =     13.53450  eV     2   --> E_1u           
     e( 28 - 28) =     13.84528  eV     1   --> B_1g           

 **************************************************************************

     BANDS        :     19.20s CPU     20.95s WALL


   This run was terminated on:  15:51:12   5Nov2024            

=------------------------------------------------------------------------------=
   JOB DONE.
=------------------------------------------------------------------------------=
