
     Program PWSCF v.7.3.1 starts on  5Nov2024 at 15:34: 6 

     This program is part of the open-source Quantum ESPRESSO suite
     for quantum simulation of materials; please cite
         "P. Giannozzi et al., J. Phys.:Condens. Matter 21 395502 (2009);
         "P. Giannozzi et al., J. Phys.:Condens. Matter 29 465901 (2017);
         "P. Giannozzi et al., J. Chem. Phys. 152 154105 (2020);
          URL http://www.quantum-espresso.org", 
     in publications or presentations arising from this work. More details at
     http://www.quantum-espresso.org/quote

     Parallel version (MPI), running on     1 processors

     MPI processes distributed on     1 nodes
     11069 MiB available memory on the printing compute node when the environment starts

     Waiting for input...
     Reading input from standard input
Warning: card &IONS ignored
Warning: card     ION_DYNAMICS = 'BFGS' ignored
Warning: card / ignored

     Current dimensions of program PWSCF are:
     Max number of different atomic species (ntypx) = 10
     Max number of k-points (npk) =  40000
     Max angular momentum in pseudopotentials (lmaxx) =  4
     file S.pbe-mt_fhi.UPF: wavefunction(s)  4f renormalized
     file Mo.pbe-mt_fhi.UPF: wavefunction(s)  4f renormalized

     Atomic positions and unit cell read from directory:
     ./MoS2.save/


     Subspace diagonalization in iterative solution of the eigenvalue problem:
     a serial algorithm will be used


     G-vector sticks info
     --------------------
     sticks:   dense  smooth     PW     G-vecs:    dense   smooth      PW
     Sum         367     367    121                26935    26935    4693

     Using Slab Decomposition



     bravais-lattice index     =            4
     lattice parameter (alat)  =       6.0288  a.u.
     unit-cell volume          =     885.0514 (a.u.)^3
     number of atoms/cell      =            6
     number of atomic types    =            2
     number of electrons       =        28.00
     number of Kohn-Sham states=           28
     kinetic-energy cutoff     =      37.0000  Ry
     charge density cutoff     =     148.0000  Ry
     Exchange-correlation= PBE
                           (   1   4   3   4   0   0   0)

     celldm(1)=   6.028823  celldm(2)=   0.000000  celldm(3)=   4.663803
     celldm(4)=   0.000000  celldm(5)=   0.000000  celldm(6)=   0.000000

     crystal axes: (cart. coord. in units of alat)
               a(1) = (   1.000000   0.000000   0.000000 )  
               a(2) = (  -0.500000   0.866025   0.000000 )  
               a(3) = (   0.000000   0.000000   4.663803 )  

     reciprocal axes: (cart. coord. in units 2 pi/alat)
               b(1) = (  1.000000  0.577350 -0.000000 )  
               b(2) = (  0.000000  1.154701  0.000000 )  
               b(3) = (  0.000000 -0.000000  0.214417 )  


     PseudoPot. # 1 for Si read from file:
     /home/dashlander/Desktop/Sem7/CPD/Assignment_3/pseudo/S.pbe-mt_fhi.UPF
     MD5 check sum: 936ced7c0a940b77f90a1c67a4d593c3
     Pseudo is Norm-conserving, Zval =  4.0
     Generated using FHI98PP, converted with fhi2upf.x v.5.0.2
     Using radial grid of  495 points,  3 beta functions with: 
                l(1) =   0
                l(2) =   1
                l(3) =   3

     PseudoPot. # 2 for Mo read from file:
     /home/dashlander/Desktop/Sem7/CPD/Assignment_3/pseudo/Mo.pbe-mt_fhi.UPF
     MD5 check sum: ec8b92c563a31a89c2fc8f5e099e6c6b
     Pseudo is Norm-conserving, Zval =  6.0
     Generated using FHI98PP, converted with fhi2upf.x v.5.0.2
     Using radial grid of  541 points,  3 beta functions with: 
                l(1) =   0
                l(2) =   2
                l(3) =   3

     atomic species   valence    mass     pseudopotential
     S                 4.00    32.06500     Si( 1.00)
     Mo                6.00    95.94000     Mo( 1.00)

     24 Sym. Ops., with inversion, found (12 have fractional translation)


                                    s                        frac. trans.

      isym =  1     identity                                     

 cryst.   s( 1) = (     1          0          0      )
                  (     0          1          0      )
                  (     0          0          1      )

 cart.    s( 1) = (  1.0000000  0.0000000  0.0000000 )
                  (  0.0000000  1.0000000  0.0000000 )
                  (  0.0000000  0.0000000  1.0000000 )


      isym =  2     180 deg rotation - cart. axis [0,0,1]        

 cryst.   s( 2) = (    -1          0          0      )    f =(  0.0000000 )
                  (     0         -1          0      )       (  0.0000000 )
                  (     0          0          1      )       ( -0.5000000 )

 cart.    s( 2) = ( -1.0000000  0.0000000  0.0000000 )    f =(  0.0000000 )
                  (  0.0000000 -1.0000000  0.0000000 )       (  0.0000000 )
                  (  0.0000000  0.0000000  1.0000000 )       ( -2.3319013 )


      isym =  3     180 deg rotation - cart. axis [0,1,0]        

 cryst.   s( 3) = (    -1          0          0      )    f =(  0.0000010 )
                  (     1          1          0      )       (  0.0000000 )
                  (     0          0         -1      )       (  0.5000000 )

 cart.    s( 3) = ( -1.0000000  0.0000000  0.0000000 )    f =(  0.0000010 )
                  (  0.0000000  1.0000000  0.0000000 )       (  0.0000000 )
                  (  0.0000000  0.0000000 -1.0000000 )       (  2.3319013 )


      isym =  4     180 deg rotation - cart. axis [1,0,0]        

 cryst.   s( 4) = (     1          0          0      )
                  (    -1         -1          0      )
                  (     0          0         -1      )

 cart.    s( 4) = (  1.0000000  0.0000000  0.0000000 )
                  (  0.0000000 -1.0000000  0.0000000 )
                  (  0.0000000  0.0000000 -1.0000000 )


      isym =  5      60 deg rotation - cryst. axis [0,0,1]       

 cryst.   s( 5) = (     1          1          0      )    f =(  0.0000010 )
                  (    -1          0          0      )       (  0.0000000 )
                  (     0          0          1      )       ( -0.5000000 )

 cart.    s( 5) = (  0.5000000 -0.8660254  0.0000000 )    f =(  0.0000010 )
                  (  0.8660254  0.5000000  0.0000000 )       (  0.0000000 )
                  (  0.0000000  0.0000000  1.0000000 )       ( -2.3319013 )


      isym =  6      60 deg rotation - cryst. axis [0,0,-1]      

 cryst.   s( 6) = (     0         -1          0      )    f =(  0.0000000 )
                  (     1          1          0      )       ( -0.0000010 )
                  (     0          0          1      )       ( -0.5000000 )

 cart.    s( 6) = (  0.5000000  0.8660254  0.0000000 )    f =(  0.0000005 )
                  ( -0.8660254  0.5000000  0.0000000 )       ( -0.0000009 )
                  (  0.0000000  0.0000000  1.0000000 )       ( -2.3319013 )


      isym =  7     120 deg rotation - cryst. axis [0,0,1]       

 cryst.   s( 7) = (     0          1          0      )
                  (    -1         -1          0      )
                  (     0          0          1      )

 cart.    s( 7) = ( -0.5000000 -0.8660254  0.0000000 )
                  (  0.8660254 -0.5000000  0.0000000 )
                  (  0.0000000  0.0000000  1.0000000 )


      isym =  8     120 deg rotation - cryst. axis [0,0,-1]      

 cryst.   s( 8) = (    -1         -1          0      )
                  (     1          0          0      )
                  (     0          0          1      )

 cart.    s( 8) = ( -0.5000000  0.8660254  0.0000000 )
                  ( -0.8660254 -0.5000000  0.0000000 )
                  (  0.0000000  0.0000000  1.0000000 )


      isym =  9     180 deg rotation - cryst. axis [1,-1,0]      

 cryst.   s( 9) = (     0         -1          0      )    f =(  0.0000000 )
                  (    -1          0          0      )       (  0.0000000 )
                  (     0          0         -1      )       (  0.5000000 )

 cart.    s( 9) = (  0.5000000 -0.8660254  0.0000000 )    f =(  0.0000000 )
                  ( -0.8660254 -0.5000000  0.0000000 )       (  0.0000000 )
                  (  0.0000000  0.0000000 -1.0000000 )       (  2.3319013 )


      isym = 10     180 deg rotation - cryst. axis [2,1,0]       

 cryst.   s(10) = (     1          1          0      )    f =(  0.0000000 )
                  (     0         -1          0      )       ( -0.0000010 )
                  (     0          0         -1      )       (  0.5000000 )

 cart.    s(10) = (  0.5000000  0.8660254  0.0000000 )    f =(  0.0000005 )
                  (  0.8660254 -0.5000000  0.0000000 )       ( -0.0000009 )
                  (  0.0000000  0.0000000 -1.0000000 )       (  2.3319013 )


      isym = 11     180 deg rotation - cryst. axis [0,1,0]       

 cryst.   s(11) = (    -1         -1          0      )
                  (     0          1          0      )
                  (     0          0         -1      )

 cart.    s(11) = ( -0.5000000 -0.8660254  0.0000000 )
                  ( -0.8660254  0.5000000  0.0000000 )
                  (  0.0000000  0.0000000 -1.0000000 )


      isym = 12     180 deg rotation - cryst. axis [1,1,0]       

 cryst.   s(12) = (     0          1          0      )
                  (     1          0          0      )
                  (     0          0         -1      )

 cart.    s(12) = ( -0.5000000  0.8660254  0.0000000 )
                  (  0.8660254  0.5000000  0.0000000 )
                  (  0.0000000  0.0000000 -1.0000000 )


      isym = 13     inversion                                    

 cryst.   s(13) = (    -1          0          0      )
                  (     0         -1          0      )
                  (     0          0         -1      )

 cart.    s(13) = ( -1.0000000  0.0000000  0.0000000 )
                  (  0.0000000 -1.0000000  0.0000000 )
                  (  0.0000000  0.0000000 -1.0000000 )


      isym = 14     inv. 180 deg rotation - cart. axis [0,0,1]   

 cryst.   s(14) = (     1          0          0      )    f =(  0.0000000 )
                  (     0          1          0      )       (  0.0000000 )
                  (     0          0         -1      )       (  0.5000000 )

 cart.    s(14) = (  1.0000000  0.0000000  0.0000000 )    f =(  0.0000000 )
                  (  0.0000000  1.0000000  0.0000000 )       (  0.0000000 )
                  (  0.0000000  0.0000000 -1.0000000 )       (  2.3319013 )


      isym = 15     inv. 180 deg rotation - cart. axis [0,1,0]   

 cryst.   s(15) = (     1          0          0      )    f =(  0.0000010 )
                  (    -1         -1          0      )       (  0.0000000 )
                  (     0          0          1      )       ( -0.5000000 )

 cart.    s(15) = (  1.0000000  0.0000000  0.0000000 )    f =(  0.0000010 )
                  (  0.0000000 -1.0000000  0.0000000 )       (  0.0000000 )
                  (  0.0000000  0.0000000  1.0000000 )       ( -2.3319013 )


      isym = 16     inv. 180 deg rotation - cart. axis [1,0,0]   

 cryst.   s(16) = (    -1          0          0      )
                  (     1          1          0      )
                  (     0          0          1      )

 cart.    s(16) = ( -1.0000000  0.0000000  0.0000000 )
                  (  0.0000000  1.0000000  0.0000000 )
                  (  0.0000000  0.0000000  1.0000000 )


      isym = 17     inv.  60 deg rotation - cryst. axis [0,0,1]  

 cryst.   s(17) = (    -1         -1          0      )    f =(  0.0000010 )
                  (     1          0          0      )       (  0.0000000 )
                  (     0          0         -1      )       (  0.5000000 )

 cart.    s(17) = ( -0.5000000  0.8660254  0.0000000 )    f =(  0.0000010 )
                  ( -0.8660254 -0.5000000  0.0000000 )       (  0.0000000 )
                  (  0.0000000  0.0000000 -1.0000000 )       (  2.3319013 )


      isym = 18     inv.  60 deg rotation - cryst. axis [0,0,-1] 

 cryst.   s(18) = (     0          1          0      )    f =(  0.0000000 )
                  (    -1         -1          0      )       ( -0.0000010 )
                  (     0          0         -1      )       (  0.5000000 )

 cart.    s(18) = ( -0.5000000 -0.8660254  0.0000000 )    f =(  0.0000005 )
                  (  0.8660254 -0.5000000  0.0000000 )       ( -0.0000009 )
                  (  0.0000000  0.0000000 -1.0000000 )       (  2.3319013 )


      isym = 19     inv. 120 deg rotation - cryst. axis [0,0,1]  

 cryst.   s(19) = (     0         -1          0      )
                  (     1          1          0      )
                  (     0          0         -1      )

 cart.    s(19) = (  0.5000000  0.8660254  0.0000000 )
                  ( -0.8660254  0.5000000  0.0000000 )
                  (  0.0000000  0.0000000 -1.0000000 )


      isym = 20     inv. 120 deg rotation - cryst. axis [0,0,-1] 

 cryst.   s(20) = (     1          1          0      )
                  (    -1          0          0      )
                  (     0          0         -1      )

 cart.    s(20) = (  0.5000000 -0.8660254  0.0000000 )
                  (  0.8660254  0.5000000  0.0000000 )
                  (  0.0000000  0.0000000 -1.0000000 )


      isym = 21     inv. 180 deg rotation - cryst. axis [1,-1,0] 

 cryst.   s(21) = (     0          1          0      )    f =(  0.0000000 )
                  (     1          0          0      )       (  0.0000000 )
                  (     0          0          1      )       ( -0.5000000 )

 cart.    s(21) = ( -0.5000000  0.8660254  0.0000000 )    f =( -0.0000000 )
                  (  0.8660254  0.5000000  0.0000000 )       (  0.0000000 )
                  (  0.0000000  0.0000000  1.0000000 )       ( -2.3319013 )


      isym = 22     inv. 180 deg rotation - cryst. axis [2,1,0]  

 cryst.   s(22) = (    -1         -1          0      )    f =(  0.0000000 )
                  (     0          1          0      )       ( -0.0000010 )
                  (     0          0          1      )       ( -0.5000000 )

 cart.    s(22) = ( -0.5000000 -0.8660254  0.0000000 )    f =(  0.0000005 )
                  ( -0.8660254  0.5000000  0.0000000 )       ( -0.0000009 )
                  (  0.0000000  0.0000000  1.0000000 )       ( -2.3319013 )


      isym = 23     inv. 180 deg rotation - cryst. axis [0,1,0]  

 cryst.   s(23) = (     1          1          0      )
                  (     0         -1          0      )
                  (     0          0          1      )

 cart.    s(23) = (  0.5000000  0.8660254  0.0000000 )
                  (  0.8660254 -0.5000000  0.0000000 )
                  (  0.0000000  0.0000000  1.0000000 )


      isym = 24     inv. 180 deg rotation - cryst. axis [1,1,0]  

 cryst.   s(24) = (     0         -1          0      )
                  (    -1          0          0      )
                  (     0          0          1      )

 cart.    s(24) = (  0.5000000 -0.8660254  0.0000000 )
                  ( -0.8660254 -0.5000000  0.0000000 )
                  (  0.0000000  0.0000000  1.0000000 )


     point group D_6h(6/mmm)
     there are 12 classes
     the character table:

       E     2C6   2C3   C2    3C2'  3C2'' i     2S3   2S6   s_h   3s_d  3s_v 
A_1g   1.00  1.00  1.00  1.00  1.00  1.00  1.00  1.00  1.00  1.00  1.00  1.00
A_2g   1.00  1.00  1.00  1.00 -1.00 -1.00  1.00  1.00  1.00  1.00 -1.00 -1.00
B_1g   1.00 -1.00  1.00 -1.00  1.00 -1.00  1.00 -1.00  1.00 -1.00  1.00 -1.00
B_2g   1.00 -1.00  1.00 -1.00 -1.00  1.00  1.00 -1.00  1.00 -1.00 -1.00  1.00
E_1g   2.00  1.00 -1.00 -2.00  0.00  0.00  2.00  1.00 -1.00 -2.00  0.00  0.00
E_2g   2.00 -1.00 -1.00  2.00  0.00  0.00  2.00 -1.00 -1.00  2.00  0.00  0.00
A_1u   1.00  1.00  1.00  1.00  1.00  1.00 -1.00 -1.00 -1.00 -1.00 -1.00 -1.00
A_2u   1.00  1.00  1.00  1.00 -1.00 -1.00 -1.00 -1.00 -1.00 -1.00  1.00  1.00
B_1u   1.00 -1.00  1.00 -1.00  1.00 -1.00 -1.00  1.00 -1.00  1.00 -1.00  1.00
B_2u   1.00 -1.00  1.00 -1.00 -1.00  1.00 -1.00  1.00 -1.00  1.00  1.00 -1.00
E_1u   2.00  1.00 -1.00 -2.00  0.00  0.00 -2.00 -1.00  1.00  2.00  0.00  0.00
E_2u   2.00 -1.00 -1.00  2.00  0.00  0.00 -2.00  1.00  1.00 -2.00  0.00  0.00

     the symmetry operations in each class and the name of the first element:

     E        1
          identity                                               
     2C6      5    6
           60 deg rotation - cryst. axis [0,0,1]                 
     2C3      7    8
          120 deg rotation - cryst. axis [0,0,1]                 
     C2       2
          180 deg rotation - cart. axis [0,0,1]                  
     3C2'     4   12   11
          180 deg rotation - cart. axis [1,0,0]                  
     3C2''    3    9   10
          180 deg rotation - cart. axis [0,1,0]                  
     i       13
          inversion                                              
     2S3     17   18
          inv.  60 deg rotation - cryst. axis [0,0,1]            
     2S6     19   20
          inv. 120 deg rotation - cryst. axis [0,0,1]            
     s_h     14
          inv. 180 deg rotation - cart. axis [0,0,1]             
     3s_d    16   24   23
          inv. 180 deg rotation - cart. axis [1,0,0]             
     3s_v    15   21   22
          inv. 180 deg rotation - cart. axis [0,1,0]             

   Cartesian axes

     site n.     atom                  positions (alat units)
         1        S      tau(   1) = (  -0.0000005   0.5773506   0.6727329  )
         2        S      tau(   2) = (   0.5000005   0.2886748   3.0046342  )
         3        S      tau(   3) = (  -0.0000005   0.5773506   1.6591684  )
         4        S      tau(   4) = (   0.5000005   0.2886748   3.9910697  )
         5        Mo     tau(   5) = (   0.5000005   0.2886748   1.1659506  )
         6        Mo     tau(   6) = (  -0.0000005   0.5773506   3.4978519  )

   Crystallographic axes

     site n.     atom                  positions (cryst. coord.)
         1        S      tau(   1) = (  0.3333330  0.6666670  0.1442456  )
         2        S      tau(   2) = (  0.6666670  0.3333330  0.6442456  )
         3        S      tau(   3) = (  0.3333330  0.6666670  0.3557544  )
         4        S      tau(   4) = (  0.6666670  0.3333330  0.8557544  )
         5        Mo     tau(   5) = (  0.6666670  0.3333330  0.2500000  )
         6        Mo     tau(   6) = (  0.3333330  0.6666670  0.7500000  )

     number of k points=    91
                       cart. coord. in units 2pi/alat
        k(    1) = (   0.0000000   0.0000000   0.0000000), wk =   0.0219780
        k(    2) = (   0.0083333   0.0144338   0.0000000), wk =   0.0219780
        k(    3) = (   0.0166667   0.0288675   0.0000000), wk =   0.0219780
        k(    4) = (   0.0250000   0.0433013   0.0000000), wk =   0.0219780
        k(    5) = (   0.0333333   0.0577350   0.0000000), wk =   0.0219780
        k(    6) = (   0.0416667   0.0721688   0.0000000), wk =   0.0219780
        k(    7) = (   0.0500000   0.0866025   0.0000000), wk =   0.0219780
        k(    8) = (   0.0583333   0.1010363   0.0000000), wk =   0.0219780
        k(    9) = (   0.0666667   0.1154701   0.0000000), wk =   0.0219780
        k(   10) = (   0.0750000   0.1299038   0.0000000), wk =   0.0219780
        k(   11) = (   0.0833333   0.1443376   0.0000000), wk =   0.0219780
        k(   12) = (   0.0916667   0.1587713   0.0000000), wk =   0.0219780
        k(   13) = (   0.1000000   0.1732051   0.0000000), wk =   0.0219780
        k(   14) = (   0.1083333   0.1876388   0.0000000), wk =   0.0219780
        k(   15) = (   0.1166667   0.2020726   0.0000000), wk =   0.0219780
        k(   16) = (   0.1250000   0.2165064   0.0000000), wk =   0.0219780
        k(   17) = (   0.1333333   0.2309401   0.0000000), wk =   0.0219780
        k(   18) = (   0.1416667   0.2453739   0.0000000), wk =   0.0219780
        k(   19) = (   0.1500000   0.2598076   0.0000000), wk =   0.0219780
        k(   20) = (   0.1583333   0.2742414   0.0000000), wk =   0.0219780
        k(   21) = (   0.1666667   0.2886751   0.0000000), wk =   0.0219780
        k(   22) = (   0.1750000   0.3031089   0.0000000), wk =   0.0219780
        k(   23) = (   0.1833333   0.3175426   0.0000000), wk =   0.0219780
        k(   24) = (   0.1916667   0.3319764   0.0000000), wk =   0.0219780
        k(   25) = (   0.2000000   0.3464102   0.0000000), wk =   0.0219780
        k(   26) = (   0.2083333   0.3608439   0.0000000), wk =   0.0219780
        k(   27) = (   0.2166667   0.3752777   0.0000000), wk =   0.0219780
        k(   28) = (   0.2250000   0.3897114   0.0000000), wk =   0.0219780
        k(   29) = (   0.2333333   0.4041452   0.0000000), wk =   0.0219780
        k(   30) = (   0.2416667   0.4185789   0.0000000), wk =   0.0219780
        k(   31) = (   0.2500000   0.4330127   0.0000000), wk =   0.0219780
        k(   32) = (   0.2583333   0.4474465   0.0000000), wk =   0.0219780
        k(   33) = (   0.2666667   0.4618802   0.0000000), wk =   0.0219780
        k(   34) = (   0.2750000   0.4763140   0.0000000), wk =   0.0219780
        k(   35) = (   0.2833333   0.4907477   0.0000000), wk =   0.0219780
        k(   36) = (   0.2916667   0.5051815   0.0000000), wk =   0.0219780
        k(   37) = (   0.3000000   0.5196152   0.0000000), wk =   0.0219780
        k(   38) = (   0.3083333   0.5340490   0.0000000), wk =   0.0219780
        k(   39) = (   0.3166667   0.5484828   0.0000000), wk =   0.0219780
        k(   40) = (   0.3250000   0.5629165   0.0000000), wk =   0.0219780
        k(   41) = (   0.3333333   0.5773503   0.0000000), wk =   0.0219780
        k(   42) = (   0.3416667   0.5629165   0.0000000), wk =   0.0219780
        k(   43) = (   0.3500000   0.5484828   0.0000000), wk =   0.0219780
        k(   44) = (   0.3583333   0.5340490   0.0000000), wk =   0.0219780
        k(   45) = (   0.3666667   0.5196152   0.0000000), wk =   0.0219780
        k(   46) = (   0.3750000   0.5051815   0.0000000), wk =   0.0219780
        k(   47) = (   0.3833333   0.4907477   0.0000000), wk =   0.0219780
        k(   48) = (   0.3916667   0.4763140   0.0000000), wk =   0.0219780
        k(   49) = (   0.4000000   0.4618802   0.0000000), wk =   0.0219780
        k(   50) = (   0.4083333   0.4474465   0.0000000), wk =   0.0219780
        k(   51) = (   0.4166667   0.4330127   0.0000000), wk =   0.0219780
        k(   52) = (   0.4250000   0.4185789   0.0000000), wk =   0.0219780
        k(   53) = (   0.4333333   0.4041452   0.0000000), wk =   0.0219780
        k(   54) = (   0.4416667   0.3897114   0.0000000), wk =   0.0219780
        k(   55) = (   0.4500000   0.3752777   0.0000000), wk =   0.0219780
        k(   56) = (   0.4583333   0.3608439   0.0000000), wk =   0.0219780
        k(   57) = (   0.4666667   0.3464102   0.0000000), wk =   0.0219780
        k(   58) = (   0.4750000   0.3319764   0.0000000), wk =   0.0219780
        k(   59) = (   0.4833333   0.3175426   0.0000000), wk =   0.0219780
        k(   60) = (   0.4916667   0.3031089   0.0000000), wk =   0.0219780
        k(   61) = (   0.5000000   0.2886751   0.0000000), wk =   0.0219780
        k(   62) = (   0.4833333   0.2790526   0.0000000), wk =   0.0219780
        k(   63) = (   0.4666667   0.2694301   0.0000000), wk =   0.0219780
        k(   64) = (   0.4500000   0.2598076   0.0000000), wk =   0.0219780
        k(   65) = (   0.4333333   0.2501851   0.0000000), wk =   0.0219780
        k(   66) = (   0.4166667   0.2405626   0.0000000), wk =   0.0219780
        k(   67) = (   0.4000000   0.2309401   0.0000000), wk =   0.0219780
        k(   68) = (   0.3833333   0.2213176   0.0000000), wk =   0.0219780
        k(   69) = (   0.3666667   0.2116951   0.0000000), wk =   0.0219780
        k(   70) = (   0.3500000   0.2020726   0.0000000), wk =   0.0219780
        k(   71) = (   0.3333333   0.1924501   0.0000000), wk =   0.0219780
        k(   72) = (   0.3166667   0.1828276   0.0000000), wk =   0.0219780
        k(   73) = (   0.3000000   0.1732051   0.0000000), wk =   0.0219780
        k(   74) = (   0.2833333   0.1635826   0.0000000), wk =   0.0219780
        k(   75) = (   0.2666667   0.1539601   0.0000000), wk =   0.0219780
        k(   76) = (   0.2500000   0.1443376   0.0000000), wk =   0.0219780
        k(   77) = (   0.2333333   0.1347151   0.0000000), wk =   0.0219780
        k(   78) = (   0.2166667   0.1250926   0.0000000), wk =   0.0219780
        k(   79) = (   0.2000000   0.1154701   0.0000000), wk =   0.0219780
        k(   80) = (   0.1833333   0.1058475   0.0000000), wk =   0.0219780
        k(   81) = (   0.1666667   0.0962250   0.0000000), wk =   0.0219780
        k(   82) = (   0.1500000   0.0866025   0.0000000), wk =   0.0219780
        k(   83) = (   0.1333333   0.0769800   0.0000000), wk =   0.0219780
        k(   84) = (   0.1166667   0.0673575   0.0000000), wk =   0.0219780
        k(   85) = (   0.1000000   0.0577350   0.0000000), wk =   0.0219780
        k(   86) = (   0.0833333   0.0481125   0.0000000), wk =   0.0219780
        k(   87) = (   0.0666667   0.0384900   0.0000000), wk =   0.0219780
        k(   88) = (   0.0500000   0.0288675   0.0000000), wk =   0.0219780
        k(   89) = (   0.0333333   0.0192450   0.0000000), wk =   0.0219780
        k(   90) = (   0.0166667   0.0096225   0.0000000), wk =   0.0219780
        k(   91) = (   0.0000000   0.0000000   0.0000000), wk =   0.0219780

                       cryst. coord.
        k(    1) = (   0.0000000   0.0000000   0.0000000), wk =   0.0219780
        k(    2) = (   0.0083333   0.0083333   0.0000000), wk =   0.0219780
        k(    3) = (   0.0166667   0.0166667   0.0000000), wk =   0.0219780
        k(    4) = (   0.0250000   0.0250000   0.0000000), wk =   0.0219780
        k(    5) = (   0.0333333   0.0333333   0.0000000), wk =   0.0219780
        k(    6) = (   0.0416667   0.0416667   0.0000000), wk =   0.0219780
        k(    7) = (   0.0500000   0.0500000   0.0000000), wk =   0.0219780
        k(    8) = (   0.0583333   0.0583333   0.0000000), wk =   0.0219780
        k(    9) = (   0.0666667   0.0666667   0.0000000), wk =   0.0219780
        k(   10) = (   0.0750000   0.0750000   0.0000000), wk =   0.0219780
        k(   11) = (   0.0833333   0.0833333   0.0000000), wk =   0.0219780
        k(   12) = (   0.0916667   0.0916667   0.0000000), wk =   0.0219780
        k(   13) = (   0.1000000   0.1000000   0.0000000), wk =   0.0219780
        k(   14) = (   0.1083333   0.1083333   0.0000000), wk =   0.0219780
        k(   15) = (   0.1166667   0.1166667   0.0000000), wk =   0.0219780
        k(   16) = (   0.1250000   0.1250000   0.0000000), wk =   0.0219780
        k(   17) = (   0.1333333   0.1333333   0.0000000), wk =   0.0219780
        k(   18) = (   0.1416667   0.1416667   0.0000000), wk =   0.0219780
        k(   19) = (   0.1500000   0.1500000   0.0000000), wk =   0.0219780
        k(   20) = (   0.1583333   0.1583333   0.0000000), wk =   0.0219780
        k(   21) = (   0.1666667   0.1666667   0.0000000), wk =   0.0219780
        k(   22) = (   0.1750000   0.1750000   0.0000000), wk =   0.0219780
        k(   23) = (   0.1833333   0.1833333   0.0000000), wk =   0.0219780
        k(   24) = (   0.1916667   0.1916667   0.0000000), wk =   0.0219780
        k(   25) = (   0.2000000   0.2000000   0.0000000), wk =   0.0219780
        k(   26) = (   0.2083333   0.2083333   0.0000000), wk =   0.0219780
        k(   27) = (   0.2166667   0.2166667   0.0000000), wk =   0.0219780
        k(   28) = (   0.2250000   0.2250000   0.0000000), wk =   0.0219780
        k(   29) = (   0.2333333   0.2333333   0.0000000), wk =   0.0219780
        k(   30) = (   0.2416667   0.2416667   0.0000000), wk =   0.0219780
        k(   31) = (   0.2500000   0.2500000   0.0000000), wk =   0.0219780
        k(   32) = (   0.2583333   0.2583333   0.0000000), wk =   0.0219780
        k(   33) = (   0.2666667   0.2666667   0.0000000), wk =   0.0219780
        k(   34) = (   0.2750000   0.2750000   0.0000000), wk =   0.0219780
        k(   35) = (   0.2833333   0.2833333   0.0000000), wk =   0.0219780
        k(   36) = (   0.2916667   0.2916667   0.0000000), wk =   0.0219780
        k(   37) = (   0.3000000   0.3000000   0.0000000), wk =   0.0219780
        k(   38) = (   0.3083333   0.3083333   0.0000000), wk =   0.0219780
        k(   39) = (   0.3166667   0.3166667   0.0000000), wk =   0.0219780
        k(   40) = (   0.3250000   0.3250000   0.0000000), wk =   0.0219780
        k(   41) = (   0.3333333   0.3333333   0.0000000), wk =   0.0219780
        k(   42) = (   0.3416667   0.3166667   0.0000000), wk =   0.0219780
        k(   43) = (   0.3500000   0.3000000   0.0000000), wk =   0.0219780
        k(   44) = (   0.3583333   0.2833333   0.0000000), wk =   0.0219780
        k(   45) = (   0.3666667   0.2666667   0.0000000), wk =   0.0219780
        k(   46) = (   0.3750000   0.2500000   0.0000000), wk =   0.0219780
        k(   47) = (   0.3833333   0.2333333   0.0000000), wk =   0.0219780
        k(   48) = (   0.3916667   0.2166667   0.0000000), wk =   0.0219780
        k(   49) = (   0.4000000   0.2000000   0.0000000), wk =   0.0219780
        k(   50) = (   0.4083333   0.1833333   0.0000000), wk =   0.0219780
        k(   51) = (   0.4166667   0.1666667   0.0000000), wk =   0.0219780
        k(   52) = (   0.4250000   0.1500000   0.0000000), wk =   0.0219780
        k(   53) = (   0.4333333   0.1333333   0.0000000), wk =   0.0219780
        k(   54) = (   0.4416667   0.1166667   0.0000000), wk =   0.0219780
        k(   55) = (   0.4500000   0.1000000   0.0000000), wk =   0.0219780
        k(   56) = (   0.4583333   0.0833333   0.0000000), wk =   0.0219780
        k(   57) = (   0.4666667   0.0666667   0.0000000), wk =   0.0219780
        k(   58) = (   0.4750000   0.0500000   0.0000000), wk =   0.0219780
        k(   59) = (   0.4833333   0.0333333   0.0000000), wk =   0.0219780
        k(   60) = (   0.4916667   0.0166667   0.0000000), wk =   0.0219780
        k(   61) = (   0.5000000   0.0000000   0.0000000), wk =   0.0219780
        k(   62) = (   0.4833333  -0.0000000   0.0000000), wk =   0.0219780
        k(   63) = (   0.4666667   0.0000000   0.0000000), wk =   0.0219780
        k(   64) = (   0.4500000   0.0000000   0.0000000), wk =   0.0219780
        k(   65) = (   0.4333333  -0.0000000   0.0000000), wk =   0.0219780
        k(   66) = (   0.4166667   0.0000000   0.0000000), wk =   0.0219780
        k(   67) = (   0.4000000   0.0000000   0.0000000), wk =   0.0219780
        k(   68) = (   0.3833333   0.0000000   0.0000000), wk =   0.0219780
        k(   69) = (   0.3666667   0.0000000   0.0000000), wk =   0.0219780
        k(   70) = (   0.3500000   0.0000000   0.0000000), wk =   0.0219780
        k(   71) = (   0.3333333   0.0000000   0.0000000), wk =   0.0219780
        k(   72) = (   0.3166667   0.0000000   0.0000000), wk =   0.0219780
        k(   73) = (   0.3000000   0.0000000   0.0000000), wk =   0.0219780
        k(   74) = (   0.2833333   0.0000000   0.0000000), wk =   0.0219780
        k(   75) = (   0.2666667   0.0000000   0.0000000), wk =   0.0219780
        k(   76) = (   0.2500000   0.0000000   0.0000000), wk =   0.0219780
        k(   77) = (   0.2333333   0.0000000   0.0000000), wk =   0.0219780
        k(   78) = (   0.2166667  -0.0000000   0.0000000), wk =   0.0219780
        k(   79) = (   0.2000000   0.0000000   0.0000000), wk =   0.0219780
        k(   80) = (   0.1833333   0.0000000   0.0000000), wk =   0.0219780
        k(   81) = (   0.1666667   0.0000000   0.0000000), wk =   0.0219780
        k(   82) = (   0.1500000   0.0000000   0.0000000), wk =   0.0219780
        k(   83) = (   0.1333333   0.0000000   0.0000000), wk =   0.0219780
        k(   84) = (   0.1166667   0.0000000   0.0000000), wk =   0.0219780
        k(   85) = (   0.1000000   0.0000000   0.0000000), wk =   0.0219780
        k(   86) = (   0.0833333   0.0000000   0.0000000), wk =   0.0219780
        k(   87) = (   0.0666667   0.0000000   0.0000000), wk =   0.0219780
        k(   88) = (   0.0500000   0.0000000   0.0000000), wk =   0.0219780
        k(   89) = (   0.0333333   0.0000000   0.0000000), wk =   0.0219780
        k(   90) = (   0.0166667   0.0000000   0.0000000), wk =   0.0219780
        k(   91) = (   0.0000000   0.0000000   0.0000000), wk =   0.0219780

     Dense  grid:    26935 G-vectors     FFT dimensions: (  24,  24, 120)

     Dynamical RAM for                 wfc:       1.44 MB

     Dynamical RAM for     wfc (w. buffer):       1.44 MB

     Dynamical RAM for           str. fact:       0.82 MB

     Dynamical RAM for           local pot:       0.00 MB

     Dynamical RAM for          nlocal pot:       3.59 MB

     Dynamical RAM for                qrad:       0.78 MB

     Dynamical RAM for          rho,v,vnew:       2.82 MB

     Dynamical RAM for           G-vectors:       1.75 MB

     Dynamical RAM for          h,s,v(r/c):       0.04 MB

     Dynamical RAM for          <psi|beta>:       0.03 MB

     Dynamical RAM for      wfcinit/wfcrot:      10.07 MB

     Estimated static dynamical RAM per process >      15.07 MB

     Estimated max dynamical RAM per process >      25.13 MB

     The potential is recalculated from file :
     ./MoS2.save/charge-density

     Starting wfcs are   96 randomized atomic wfcs

     Band Structure Calculation
     CG style diagonalization

     Computing kpt #:     1  of    91
     total cpu time spent up to now is        4.3 secs

     Computing kpt #:     2  of    91
     total cpu time spent up to now is        7.4 secs

     Computing kpt #:     3  of    91
     total cpu time spent up to now is       10.0 secs

     Computing kpt #:     4  of    91
     total cpu time spent up to now is       12.6 secs

     Computing kpt #:     5  of    91
     total cpu time spent up to now is       15.3 secs

     Computing kpt #:     6  of    91
     total cpu time spent up to now is       17.9 secs

     Computing kpt #:     7  of    91
     total cpu time spent up to now is       20.5 secs

     Computing kpt #:     8  of    91
     total cpu time spent up to now is       23.7 secs

     Computing kpt #:     9  of    91
     total cpu time spent up to now is       26.4 secs

     Computing kpt #:    10  of    91
     total cpu time spent up to now is       29.2 secs

     Computing kpt #:    11  of    91
     total cpu time spent up to now is       31.7 secs

     Computing kpt #:    12  of    91
     total cpu time spent up to now is       34.3 secs

     Computing kpt #:    13  of    91
     total cpu time spent up to now is       37.0 secs

     Computing kpt #:    14  of    91
     total cpu time spent up to now is       39.6 secs

     Computing kpt #:    15  of    91
     total cpu time spent up to now is       42.0 secs

     Computing kpt #:    16  of    91
     total cpu time spent up to now is       44.9 secs

     Computing kpt #:    17  of    91
     total cpu time spent up to now is       47.5 secs

     Computing kpt #:    18  of    91
     total cpu time spent up to now is       50.1 secs

     Computing kpt #:    19  of    91
     total cpu time spent up to now is       52.6 secs

     Computing kpt #:    20  of    91
     total cpu time spent up to now is       55.3 secs

     Computing kpt #:    21  of    91
     total cpu time spent up to now is       58.3 secs

     Computing kpt #:    22  of    91
     total cpu time spent up to now is       61.5 secs

     Computing kpt #:    23  of    91
     total cpu time spent up to now is       64.7 secs

     Computing kpt #:    24  of    91
     total cpu time spent up to now is       67.5 secs

     Computing kpt #:    25  of    91
     total cpu time spent up to now is       70.2 secs

     Computing kpt #:    26  of    91
     total cpu time spent up to now is       73.1 secs

     Computing kpt #:    27  of    91
     total cpu time spent up to now is       76.2 secs

     Computing kpt #:    28  of    91
     total cpu time spent up to now is       79.0 secs

     Computing kpt #:    29  of    91
     total cpu time spent up to now is       81.6 secs

     Computing kpt #:    30  of    91
     total cpu time spent up to now is       84.3 secs

     Computing kpt #:    31  of    91
     total cpu time spent up to now is       87.3 secs

     Computing kpt #:    32  of    91
     total cpu time spent up to now is       90.0 secs

     Computing kpt #:    33  of    91
     total cpu time spent up to now is       93.2 secs

     Computing kpt #:    34  of    91
     total cpu time spent up to now is       96.2 secs

     Computing kpt #:    35  of    91
     total cpu time spent up to now is       99.2 secs

     Computing kpt #:    36  of    91
     total cpu time spent up to now is      101.7 secs

     Computing kpt #:    37  of    91
     total cpu time spent up to now is      104.3 secs

     Computing kpt #:    38  of    91
     total cpu time spent up to now is      107.1 secs

     Computing kpt #:    39  of    91
     total cpu time spent up to now is      109.8 secs

     Computing kpt #:    40  of    91
     total cpu time spent up to now is      112.4 secs

     Computing kpt #:    41  of    91
     total cpu time spent up to now is      114.8 secs

     Computing kpt #:    42  of    91
     total cpu time spent up to now is      117.6 secs

     Computing kpt #:    43  of    91
     total cpu time spent up to now is      120.6 secs

     Computing kpt #:    44  of    91
     total cpu time spent up to now is      123.6 secs

     Computing kpt #:    45  of    91
     total cpu time spent up to now is      126.4 secs

     Computing kpt #:    46  of    91
     total cpu time spent up to now is      129.4 secs

     Computing kpt #:    47  of    91
     total cpu time spent up to now is      132.5 secs

     Computing kpt #:    48  of    91
     total cpu time spent up to now is      135.6 secs

     Computing kpt #:    49  of    91
     total cpu time spent up to now is      138.4 secs

     Computing kpt #:    50  of    91
     total cpu time spent up to now is      141.1 secs

     Computing kpt #:    51  of    91
     total cpu time spent up to now is      143.9 secs

     Computing kpt #:    52  of    91
     total cpu time spent up to now is      146.6 secs

     Computing kpt #:    53  of    91
     total cpu time spent up to now is      149.1 secs

     Computing kpt #:    54  of    91
     total cpu time spent up to now is      151.9 secs

     Computing kpt #:    55  of    91
     total cpu time spent up to now is      154.5 secs

     Computing kpt #:    56  of    91
     total cpu time spent up to now is      157.3 secs

     Computing kpt #:    57  of    91
     total cpu time spent up to now is      160.2 secs

     Computing kpt #:    58  of    91
     total cpu time spent up to now is      162.8 secs

     Computing kpt #:    59  of    91
     total cpu time spent up to now is      165.5 secs

     Computing kpt #:    60  of    91
     total cpu time spent up to now is      168.3 secs

     Computing kpt #:    61  of    91
     c_bands:  1 eigenvalues not converged
     total cpu time spent up to now is      171.6 secs

     Computing kpt #:    62  of    91
     c_bands:  1 eigenvalues not converged
     total cpu time spent up to now is      174.9 secs

     Computing kpt #:    63  of    91
     total cpu time spent up to now is      177.7 secs

     Computing kpt #:    64  of    91
     total cpu time spent up to now is      181.0 secs

     Computing kpt #:    65  of    91
     total cpu time spent up to now is      184.1 secs

     Computing kpt #:    66  of    91
     total cpu time spent up to now is      187.8 secs

     Computing kpt #:    67  of    91
     total cpu time spent up to now is      190.8 secs

     Computing kpt #:    68  of    91
     total cpu time spent up to now is      194.1 secs

     Computing kpt #:    69  of    91
     c_bands:  1 eigenvalues not converged
     total cpu time spent up to now is      197.8 secs

     Computing kpt #:    70  of    91
     total cpu time spent up to now is      200.9 secs

     Computing kpt #:    71  of    91
     total cpu time spent up to now is      203.8 secs

     Computing kpt #:    72  of    91
     total cpu time spent up to now is      207.2 secs

     Computing kpt #:    73  of    91
     total cpu time spent up to now is      209.7 secs

     Computing kpt #:    74  of    91
     total cpu time spent up to now is      212.7 secs

     Computing kpt #:    75  of    91
     total cpu time spent up to now is      215.3 secs

     Computing kpt #:    76  of    91
     total cpu time spent up to now is      218.1 secs

     Computing kpt #:    77  of    91
     total cpu time spent up to now is      220.5 secs

     Computing kpt #:    78  of    91
     total cpu time spent up to now is      222.8 secs

     Computing kpt #:    79  of    91
     total cpu time spent up to now is      225.1 secs

     Computing kpt #:    80  of    91
     total cpu time spent up to now is      227.4 secs

     Computing kpt #:    81  of    91
     total cpu time spent up to now is      229.7 secs

     Computing kpt #:    82  of    91
     total cpu time spent up to now is      232.0 secs

     Computing kpt #:    83  of    91
     total cpu time spent up to now is      234.2 secs

     Computing kpt #:    84  of    91
     total cpu time spent up to now is      236.6 secs

     Computing kpt #:    85  of    91
     total cpu time spent up to now is      239.2 secs

     Computing kpt #:    86  of    91
     total cpu time spent up to now is      241.7 secs

     Computing kpt #:    87  of    91
     total cpu time spent up to now is      244.2 secs

     Computing kpt #:    88  of    91
     total cpu time spent up to now is      246.9 secs

     Computing kpt #:    89  of    91
     total cpu time spent up to now is      249.5 secs

     Computing kpt #:    90  of    91
     total cpu time spent up to now is      252.5 secs

     Computing kpt #:    91  of    91
     total cpu time spent up to now is      255.1 secs

     ethr =  3.57E-13,  avg # of iterations = 43.3

     total cpu time spent up to now is      255.1 secs

     End of band structure calculation

          k = 0.0000 0.0000 0.0000 (  3337 PWs)   bands (ev):

    -4.0564  -3.9937  -2.3118  -2.1289   1.5825   1.9634   4.8738   4.8738
     4.8738   4.8738   5.5651   6.0151   6.0152   6.0160   6.0160   6.1482
     7.2986   7.4476  12.8210  12.8210  12.8290  12.8291  13.2441  13.4704
    13.4704  13.5345  13.5345  13.8453

          k = 0.0083 0.0144 0.0000 (  3345 PWs)   bands (ev):

    -4.0524  -3.9897  -2.3092  -2.1264   1.5862   1.9670   4.8677   4.8679
     4.8779   4.8779   5.5417   5.9998   6.0117   6.0125   6.0395   6.1499
     7.3144   7.4476  12.8040  12.8119  12.8254  12.8331  13.2278  13.4427
    13.4551  13.5198  13.5231  13.8510

          k = 0.0167 0.0289 0.0000 (  3341 PWs)   bands (ev):

    -4.0401  -3.9775  -2.3011  -2.1188   1.5975   1.9777   4.8496   4.8504
     4.8903   4.8903   5.4821   5.9563   6.0011   6.0020   6.0994   6.1551
     7.3596   7.4477  12.7549  12.7636  12.8365  12.8446  13.1709  13.3632
    13.4076  13.4754  13.5034  13.8682

          k = 0.0250 0.0433 0.0000 (  3347 PWs)   bands (ev):

    -4.0199  -3.9572  -2.2876  -2.1061   1.6161   1.9954   4.8200   4.8218
     4.9109   4.9110   5.4034   5.8902   5.9835   5.9844   6.1637   6.1789
     7.4282   7.4475  12.6769  12.6863  12.8543  12.8632  13.0633  13.2406
    13.3266  13.4015  13.4984  13.8966

          k = 0.0333 0.0577 0.0000 (  3339 PWs)   bands (ev):

    -3.9915  -3.9288  -2.2688  -2.0885   1.6420   2.0200   4.7798   4.7827
     4.9398   4.9399   5.3158   5.8082   5.9586   5.9596   6.1753   6.2678
     7.4470   7.5136  12.5748  12.5844  12.8775  12.8886  12.9104  13.0845
    13.2153  13.2992  13.5127  13.9360

          k = 0.0417 0.0722 0.0000 (  3345 PWs)   bands (ev):

    -3.9552  -3.8924  -2.2448  -2.0659   1.6749   2.0511   4.7296   4.7343
     4.9768   4.9769   5.2244   5.7159   5.9261   5.9273   6.1899   6.3612
     7.4457   7.6098  12.4540  12.4629  12.7254  12.9041  12.9043  12.9198
    13.0779  13.1710  13.5408  13.9862

          k = 0.0500 0.0866 0.0000 (  3345 PWs)   bands (ev):

    -3.9109  -3.8480  -2.2156  -2.0382   1.7146   2.0884   4.6709   4.6777
     5.0220   5.0221   5.1320   5.6177   5.8862   5.8875   6.2070   6.4568
     7.4431   7.7119  12.3200  12.3267  12.5193  12.7067  12.9182  12.9329
    12.9560  13.0200  13.5783  14.0473

          k = 0.0583 0.1010 0.0000 (  3341 PWs)   bands (ev):

    -3.8587  -3.7958  -2.1812  -2.0057   1.7606   2.1314   4.6051   4.6144
     5.0402   5.0752   5.0754   5.5169   5.8384   5.8400   6.2262   6.5533
     7.4387   7.8163  12.1778  12.1802  12.2999  12.4986  12.7397  12.8497
    12.9609  12.9957  13.6220  14.1191

          k = 0.0667 0.1155 0.0000 (  3337 PWs)   bands (ev):

    -3.7988  -3.7359  -2.1417  -1.9685   1.8125   2.1794   4.5336   4.5460
     4.9503   5.1364   5.1366   5.4158   5.7826   5.7845   6.2469   6.6497
     7.4317   7.9197  12.0275  12.0321  12.0726  12.2845  12.5462  12.6639
    12.9857  13.0374  13.6698  14.2013

          k = 0.0750 0.1299 0.0000 (  3333 PWs)   bands (ev):

    -3.7313  -3.6684  -2.0973  -1.9265   1.8697   2.2318   4.4579   4.4741
     4.8629   5.2053   5.2055   5.3162   5.7185   5.7209   6.2687   6.7456
     7.4215   8.0198  11.8416  11.8720  11.8866  12.0685  12.3409  12.4662
    13.0049  13.0790  13.7205  14.2930

          k = 0.0833 0.1443 0.0000 (  3338 PWs)   bands (ev):

    -3.6564  -3.5934  -2.0481  -1.8801   1.9315   2.2875   4.3799   4.4006
     4.7790   5.2193   5.2815   5.2819   5.6461   5.6492   6.2907   6.8404
     7.4072   8.1140  11.6101  11.7166  11.7449  11.8536  12.1272  12.2602
    13.0158  13.1184  13.7728  14.3931

          k = 0.0917 0.1588 0.0000 (  3340 PWs)   bands (ev):

    -3.5740  -3.5111  -1.9942  -1.8292   1.9969   2.3454   4.3011   4.3276
     4.6990   5.1264   5.3649   5.3652   5.5653   5.5692   6.3123   6.9337
     7.3878   8.2003  11.3807  11.5636  11.6099  11.6424  11.9079  12.0493
    13.0161  13.1531  13.8258  14.4998

          k = 0.1000 0.1732 0.0000 (  3338 PWs)   bands (ev):

    -3.4846  -3.4217  -1.9358  -1.7741   2.0648   2.4039   4.2237   4.2571
     4.6237   5.0381   5.4548   5.4549   5.4762   5.4811   6.3327   7.0249
     7.3627   8.2762  11.1557  11.4151  11.4368  11.4842  11.6860  11.8368
    13.0036  13.1806  13.8790  14.6107

          k = 0.1083 0.1876 0.0000 (  3338 PWs)   bands (ev):

    -3.3883  -3.3254  -1.8729  -1.7148   2.1339   2.4612   4.1495   4.1917
     4.5533   4.9550   5.3788   5.3851   5.5503   5.5503   6.3513   7.1134
     7.3313   8.3398  10.9367  11.2379  11.2725  11.3699  11.4642  11.6261
    12.9767  13.1987  13.9316  14.7231

          k = 0.1167 0.2021 0.0000 (  3332 PWs)   bands (ev):

    -3.2852  -3.2224  -1.8057  -1.6516   2.2023   2.5151   4.0809   4.1340
     4.4886   4.8775   5.2736   5.2818   5.6498   5.6499   6.3676   7.1984
     7.2934   8.3889  10.7254  11.0459  11.1370  11.2454  11.2685  11.4212
    12.9344  13.2060  13.9829  14.8340

          k = 0.1250 0.2165 0.0000 (  3332 PWs)   bands (ev):

    -3.1756  -3.1130  -1.7346  -1.5847   2.2681   2.5630   4.0203   4.0870
     4.4297   4.8056   5.1608   5.1719   5.7511   5.7515   6.3824   7.2496
     7.2791   8.4218  10.5225  10.8600  11.0097  11.0326  11.1808  11.2263
    12.8770  13.2021  14.0323  14.9402

          k = 0.1333 0.2309 0.0000 (  3334 PWs)   bands (ev):

    -3.0599  -2.9975  -1.6597  -1.5143   2.3288   2.6022   3.9704   4.0535
     4.3770   4.7390   5.0412   5.0569   5.8491   5.8520   6.3980   7.2018
     7.3543   8.4370  10.3286  10.6784  10.8292  10.8912  11.0459  11.1069
    12.8057  13.1882  14.0788  15.0387

          k = 0.1417 0.2454 0.0000 (  3346 PWs)   bands (ev):

    -2.9384  -2.8763  -1.5813  -1.4407   2.3817   2.6303   3.9341   4.0360
     4.3305   4.6757   4.9156   4.9393   5.9354   5.9466   6.4208   7.1537
     7.4228   8.4338  10.1432  10.4998  10.6389  10.7818  10.8840  11.0458
    12.7229  13.1671  14.1214  15.1270

          k = 0.1500 0.2598 0.0000 (  3344 PWs)   bands (ev):

    -2.8112  -2.7495  -1.4995  -1.3640   2.4243   2.6456   3.9139   4.0362
     4.2902   4.6108   4.7853   4.8254   5.9967   6.0279   6.4619   7.1118
     7.4832   8.4121   9.9653  10.3241  10.4661  10.6819  10.7426  10.9956
    12.6320  13.1431  14.1588  15.2031

          k = 0.1583 0.2742 0.0000 (  3356 PWs)   bands (ev):

    -2.6791  -2.6179  -1.4147  -1.2846   2.4545   2.6475   3.9116   4.0543
     4.2548   4.5326   4.6523   4.7278   6.0206   6.0855   6.5312   7.0854
     7.5340   8.3727   9.7940  10.1534  10.3144  10.5912  10.6210  10.9534
    12.5369  13.1209  14.1891  15.2660

          k = 0.1667 0.2887 0.0000 (  3360 PWs)   bands (ev):

    -2.5422  -2.4816  -1.3272  -1.2027   2.4715   2.6371   3.9280   4.0889
     4.2214   4.4282   4.5210   4.6604   6.0062   6.1084   6.6278   7.0849
     7.5738   8.3168   9.6292   9.9915  10.1861  10.5095  10.5169  10.9156
    12.4423  13.1056  14.2103  15.3153

          k = 0.1750 0.3031 0.0000 (  3358 PWs)   bands (ev):

    -2.4012  -2.3414  -1.2372  -1.1185   2.4756   2.6165   3.9620   4.1372
     4.1795   4.3012   4.4028   4.6207   5.9613   6.0905   6.7420   7.1147
     7.6011   8.2462   9.4724   9.8434  10.0819  10.4268  10.4358  10.8788
    12.3527  13.1019  14.2195  15.3136

          k = 0.1833 0.3175 0.0000 (  3364 PWs)   bands (ev):

    -2.2566  -2.1978  -1.1453  -1.0325   2.4685   2.5883   4.0112   4.1046
     4.1618   4.1955   4.3234   4.5994   5.8938   6.0351   6.8638   7.1701
     7.6149   8.1629   9.3271   9.7147  10.0001  10.3474  10.3683  10.8395
    12.2728  13.1134  14.2135  15.0787

          k = 0.1917 0.3320 0.0000 (  3362 PWs)   bands (ev):

    -2.1091  -2.0515  -1.0516  -0.9450   2.4531   2.5555   3.9875   4.0163
     4.0718   4.2594   4.2929   4.5914   5.8100   5.9519   6.9849   7.2390
     7.6144   8.0689   9.1983   9.6119   9.9376  10.2749  10.3052  10.7952
    12.2073  13.1428  14.1889  14.8374

          k = 0.2000 0.3464 0.0000 (  3358 PWs)   bands (ev):

    -1.9595  -1.9034  -0.9566  -0.8563   2.4322   2.5207   3.8494   3.8676
     4.1393   4.2914   4.3241   4.5943   5.7148   5.8518   7.0977   7.3081
     7.5996   7.9662   9.0925   9.5418   9.8905  10.2059  10.2439  10.7444
    12.1603  13.1911  14.1428  14.5948

          k = 0.2083 0.3608 0.0000 (  3362 PWs)   bands (ev):

    -1.8088  -1.7544  -0.8608  -0.7667   2.4088   2.4865   3.7039   3.7179
     4.2083   4.3060   4.3840   4.6071   5.6132   5.7447   7.1945   7.3660
     7.5707   7.8567   9.0170   9.5110   9.8547  10.1371  10.1816  10.6867
    12.1354  13.2583  14.0745  14.3552

          k = 0.2167 0.3753 0.0000 (  3370 PWs)   bands (ev):

    -1.6580  -1.6057  -0.7646  -0.6770   2.3856   2.4550   3.5562   3.5685
     4.2723   4.3323   4.4325   4.6290   5.5110   5.6397   7.2680   7.4051
     7.5288   7.7422   8.9788   9.5240   9.8262  10.0657  10.1162  10.6223
    12.1351  13.3438  13.9858  14.1219

          k = 0.2250 0.3897 0.0000 (  3374 PWs)   bands (ev):

    -1.5083  -1.4583  -0.6684  -0.5874   2.3652   2.4282   3.4089   3.4207
     4.3238   4.3686   4.4617   4.6593   5.4151   5.5455   7.3137   7.4232
     7.4753   7.6244   8.9819   9.5816   9.8020   9.9896  10.0463  10.5523
    12.1609  13.4458  13.8816  13.8980

          k = 0.2333 0.4041 0.0000 (  3378 PWs)   bands (ev):

    -1.3613  -1.3139  -0.5729  -0.4986   2.3498   2.4080   3.2637   3.2755
     4.3533   4.4138   4.4633   4.6974   5.3339   5.4707   7.3317   7.4117
     7.4224   7.5049   9.0238   9.6799   9.7810   9.9074   9.9713  10.4779
    12.2124  13.5626  13.6861  13.7688

          k = 0.2417 0.4186 0.0000 (  3378 PWs)   bands (ev):

    -1.2184  -1.1740  -0.4786  -0.4111   2.3417   2.3962   3.1219   3.1342
     4.3516   4.4316   4.4672   4.7424   5.2758   5.4202   7.3278   7.3402
     7.3854   7.4086   9.0938   9.7662   9.7913   9.8395   9.8918  10.4004
    12.2885  13.4880  13.6539  13.6921

          k = 0.2500 0.4330 0.0000 (  3388 PWs)   bands (ev):

    -1.0816  -1.0407  -0.3863  -0.3256   2.3428   2.3947   2.9849   2.9979
     4.3132   4.3668   4.5278   4.7934   5.2449   5.3929   7.2625   7.2675
     7.3104   7.3890   9.1716   9.7126   9.7680   9.8088   9.9810  10.3214
    12.3871  13.3054  13.5425  13.8324

          k = 0.2583 0.4474 0.0000 (  3388 PWs)   bands (ev):

    -0.9527  -0.9155  -0.2968  -0.2429   2.3552   2.4050   2.8538   2.8679
     4.2406   4.2747   4.5947   4.8489   5.2377   5.3821   7.1531   7.1810
     7.2882   7.3700   9.2282   9.6080   9.7241   9.8069  10.1611  10.2424
    12.5058  13.1395  13.4374  13.7550

          k = 0.2667 0.4619 0.0000 (  3376 PWs)   bands (ev):

    -0.8337  -0.8006  -0.2110  -0.1636   2.3806   2.4289   2.7300   2.7454
     4.1419   4.1633   4.6666   4.9073   5.2453   5.3790   7.0439   7.0976
     7.2681   7.3567   9.2403   9.4979   9.6394   9.9003  10.1647  10.3540
    12.6419  12.9917  13.3372  13.5415

          k = 0.2750 0.4763 0.0000 (  3376 PWs)   bands (ev):

    -0.7266  -0.6978  -0.1300  -0.0894   2.4205   2.4674   2.6150   2.6318
     4.0257   4.0398   4.7420   4.9666   5.2583   5.3764   6.9421   7.0146
     7.2547   7.3520   9.2100   9.3855   9.5566  10.0427  10.0899  10.5514
    12.7927  12.8641  13.2263  13.3544

          k = 0.2833 0.4907 0.0000 (  3368 PWs)   bands (ev):

    -0.6329  -0.6086  -0.0552  -0.0210   2.4760   2.5104   2.5215   2.5287
     3.8990   3.9094   4.8190   5.0240   5.2703   5.3700   6.8501   6.9341
     7.2500   7.3567   9.1542   9.2745   9.4777  10.0194  10.2168  10.7450
    12.7600  12.9555  13.0654  13.2331

          k = 0.2917 0.5052 0.0000 (  3356 PWs)   bands (ev):

    -0.5538  -0.5341   0.0121   0.0397   2.4178   2.4378   2.5476   2.5912
     3.7666   3.7758   4.8951   5.0765   5.2779   5.3582   6.7704   6.8584
     7.2540   7.3697   9.0874   9.1693   9.4048   9.9548  10.4086  10.9245
    12.6854  12.8765  13.1277  13.1555

          k = 0.3000 0.5196 0.0000 (  3360 PWs)   bands (ev):

    -0.4902  -0.4750   0.0701   0.0914   2.3390   2.3608   2.6349   2.6759
     3.6318   3.6415   4.9678   5.1207   5.2801   5.3412   6.7058   6.7899
     7.2644   7.3880   9.0202   9.0744   9.3398   9.8978  10.6081  11.0768
    12.6490  12.6894  13.0925  13.3064

          k = 0.3083 0.5340 0.0000 (  3364 PWs)   bands (ev):

    -0.4420  -0.4310   0.1174   0.1326   2.2759   2.2993   2.7367   2.7739
     3.4967   3.5083   5.0337   5.1531   5.2780   5.3211   6.6587   6.7310
     7.2779   7.4077   8.9606   8.9945   9.2850   9.8499  10.8065  11.1880
    12.5143  12.6608  13.0371  13.4886

          k = 0.3167 0.5485 0.0000 (  3356 PWs)   bands (ev):

    -0.4086  -0.4016   0.1525   0.1621   2.2299   2.2547   2.8505   2.8825
     3.3629   3.3777   5.0897   5.1712   5.2740   5.3007   6.6305   6.6837
     7.2908   7.4250   8.9147   8.9339   9.2428   9.8132  10.9924  11.2489
    12.3611  12.7241  12.9872  13.4981

          k = 0.3250 0.5629 0.0000 (  3362 PWs)   bands (ev):

    -0.3890  -0.3857   0.1746   0.1791   2.2021   2.2279   2.9729   2.9968
     3.2320   3.2520   5.1326   5.1735   5.2710   5.2832   6.6212   6.6495
     7.2996   7.4363   8.8872   8.8954   9.2155   9.7896  11.1453  11.2604
    12.2480  12.8246  12.9427  13.3611

          k = 0.3333 0.5774 0.0000 (  3372 PWs)   bands (ev):

    -0.3818  -0.3818   0.1832   0.1832   2.1929   2.2190   3.0849   3.0850
     3.1197   3.1592   5.1605   5.1605   5.2728   5.2728   6.6285   6.6285
     7.3027   7.4400   8.8803   8.8803   9.2058   9.7812  11.2326  11.2326
    12.2039  12.9052  12.9052  13.2931

          k = 0.3417 0.5629 0.0000 (  3368 PWs)   bands (ev):

    -0.3884  -0.3853   0.1752   0.1789   2.2018   2.2276   2.9770   2.9955
     3.2316   3.2464   5.1345   5.1726   5.2736   5.2834   6.6198   6.6487
     7.3000   7.4368   8.8873   8.8941   9.2163   9.7903  11.1776  11.2290
    12.2477  12.8717  12.8800  13.3754

          k = 0.3500 0.5485 0.0000 (  3362 PWs)   bands (ev):

    -0.4038  -0.3979   0.1564   0.1629   2.2275   2.2520   2.8576   2.8822
     3.3541   3.3546   5.0983   5.1696   5.2901   5.3071   6.6205   6.6767
     7.2935   7.4292   8.9134   8.9267   9.2494   9.8186  11.1050  11.1491
    12.3501  12.7636  12.8811  13.5583

          k = 0.3583 0.5340 0.0000 (  3362 PWs)   bands (ev):

    -0.4266  -0.4181   0.1283   0.1369   2.2679   2.2904   2.7428   2.7721
     3.4519   3.4664   5.0555   5.1538   5.3261   5.3477   6.6269   6.7080
     7.2866   7.4206   8.9542   8.9745   9.3070   9.8681  11.0212  11.0266
    12.4470  12.6396  12.9379  13.5075

          k = 0.3667 0.5196 0.0000 (  3356 PWs)   bands (ev):

    -0.4552  -0.4443   0.0929   0.1031   2.3210   2.3404   2.6332   2.6668
     3.5323   3.5632   5.0089   5.1278   5.3844   5.4086   6.6353   6.7382
     7.2829   7.4152   9.0052   9.0339   9.3905   9.9401  10.8844  10.9303
    12.4910  12.5165  13.0743  13.3329

          k = 0.3750 0.5052 0.0000 (  3342 PWs)   bands (ev):

    -0.4881  -0.4753   0.0523   0.0637   2.3840   2.3996   2.5291   2.5667
     3.5933   3.6410   4.9613   5.0947   5.4656   5.4913   6.6424   6.7643
     7.2860   7.4166   9.0622   9.1008   9.5001  10.0351  10.7343  10.8350
    12.3998  12.4893  13.1583  13.2704

          k = 0.3833 0.4907 0.0000 (  3358 PWs)   bands (ev):

    -0.5245  -0.5098   0.0081   0.0202   2.4309   2.4547   2.4656   2.4722
     3.6342   3.6985   4.9148   5.0570   5.5678   5.5946   6.6459   6.7839
     7.2994   7.4275   9.1215   9.1718   9.6357  10.1533  10.5823  10.7370
    12.2918  12.4651  12.9849  13.4958

          k = 0.3917 0.4763 0.0000 (  3354 PWs)   bands (ev):

    -0.5628  -0.5464  -0.0378  -0.0252   2.3386   2.3835   2.5309   2.5360
     3.6571   3.7368   4.8711   5.0172   5.6867   5.7149   6.6450   6.7962
     7.3259   7.4505   9.1803   9.2439   9.7960  10.2941  10.4320  10.6379
    12.1938  12.4304  12.8142  13.7337

          k = 0.4000 0.4619 0.0000 (  3376 PWs)   bands (ev):

    -0.6024  -0.5844  -0.0843  -0.0714   2.2527   2.3007   2.6086   2.6103
     3.6651   3.7582   4.8316   4.9770   5.8167   5.8470   6.6393   6.8009
     7.3677   7.4871   9.2365   9.3147   9.9793  10.2857  10.4564  10.5389
    12.1062  12.3898  12.6473  13.6706

          k = 0.4083 0.4474 0.0000 (  3370 PWs)   bands (ev):

    -0.6417  -0.6225  -0.1299  -0.1170   2.1731   2.2240   2.6815   2.6911
     3.6616   3.7664   4.7973   4.9379   5.9518   5.9846   6.6294   6.7985
     7.4262   7.5380   9.2889   9.3822  10.1459  10.1839  10.4414  10.6388
    12.0292  12.3453  12.4858  13.4485

          k = 0.4167 0.4330 0.0000 (  3362 PWs)   bands (ev):

    -0.6804  -0.6600  -0.1738  -0.1608   2.1001   2.1536   2.7527   2.7715
     3.6500   3.7645   4.7690   4.9011   6.0861   6.1216   6.6160   6.7896
     7.5017   7.6029   9.3368   9.4444  10.0149  10.3471  10.4075  10.8393
    11.9621  12.2973  12.3311  13.2382

          k = 0.4250 0.4186 0.0000 (  3362 PWs)   bands (ev):

    -0.7177  -0.6962  -0.2153  -0.2023   2.0338   2.0896   2.8207   2.8497
     3.6332   3.7557   4.7471   4.8673   6.2150   6.2529   6.6002   6.7755
     7.5927   7.6800   9.3804   9.4997   9.8957  10.2574  10.6481  11.0562
    11.9041  12.1849  12.2459  13.0413

          k = 0.4333 0.4041 0.0000 (  3364 PWs)   bands (ev):

    -0.7526  -0.7305  -0.2538  -0.2407   1.9742   2.0320   2.8838   2.9242
     3.6135   3.7425   4.7317   4.8373   6.3352   6.3750   6.5829   6.7575
     7.6954   7.7658   9.4204   9.5451   9.7930  10.1741  10.9040  11.2871
    11.8537  12.0491  12.1910  12.8596

          k = 0.4417 0.3897 0.0000 (  3370 PWs)   bands (ev):

    -0.7850  -0.7620  -0.2887  -0.2757   1.9215   1.9810   2.9408   2.9934
     3.5928   3.7270   4.7226   4.8112   6.4442   6.4860   6.5651   6.7368
     7.8038   7.8556   9.4582   9.5738   9.7166  10.0990  11.1732  11.5288
    11.8096  11.9270  12.1326  12.6944

          k = 0.4500 0.3753 0.0000 (  3378 PWs)   bands (ev):

    -0.8140  -0.7905  -0.3196  -0.3067   1.8756   1.9366   2.9910   3.0560
     3.5724   3.7109   4.7190   4.7893   6.5411   6.5477   6.5850   6.7149
     7.9098   7.9433   9.4954   9.5700   9.6857  10.0335  11.4542  11.7456
    11.7704  11.8539  12.0715  12.5477

          k = 0.4583 0.3608 0.0000 (  3370 PWs)   bands (ev):

    -0.8394  -0.8152  -0.3461  -0.3333   1.8368   1.8989   3.0335   3.1110
     3.5537   3.6954   4.7200   4.7717   6.5316   6.6250   6.6718   6.6931
     8.0046   8.0229   9.5333   9.5464   9.6905   9.9785  11.7005  11.7354
    11.7452  12.0090  12.0673  12.4212

          k = 0.4667 0.3464 0.0000 (  3370 PWs)   bands (ev):

    -0.8606  -0.8360  -0.3681  -0.3554   1.8049   1.8681   3.0682   3.1572
     3.5373   3.6815   4.7241   4.7580   6.5173   6.6729   6.6955   6.7457
     8.0809   8.0897   9.5354   9.5716   9.7000   9.9344  11.6219  11.7041
    11.9478  12.0422  12.3189  12.3381

          k = 0.4750 0.3320 0.0000 (  3366 PWs)   bands (ev):

    -0.8775  -0.8525  -0.3854  -0.3728   1.7801   1.8440   3.0950   3.1938
     3.5239   3.6701   4.7295   4.7479   6.5056   6.6556   6.7518   6.8058
     8.1353   8.1409   9.5452   9.6087   9.7031   9.9009  11.5577  11.6771
    11.8920  12.2139  12.3718  12.6185

          k = 0.4833 0.3175 0.0000 (  3362 PWs)   bands (ev):

    -0.8897  -0.8645  -0.3979  -0.3852   1.7624   1.8268   3.1139   3.2204
     3.5141   3.6615   4.7348   4.7411   6.4968   6.6423   6.7930   6.8506
     8.1689   8.1760   9.5719   9.6407   9.6966   9.8776  11.5108  11.6558
    11.8464  12.1625  12.6764  12.9053

          k = 0.4917 0.3031 0.0000 (  3366 PWs)   bands (ev):

    -0.8970  -0.8718  -0.4055  -0.3927   1.7517   1.8164   3.1251   3.2365
     3.5081   3.6562   4.7372   4.7386   6.4914   6.6338   6.8182   6.8784
     8.1860   8.1961   9.6055   9.6626   9.6805   9.8638  11.4822  11.6419
    11.8162  12.1269  12.9878  13.1965

          k = 0.5000 0.2887 0.0000 (  3376 PWs)   bands (ev):

    -0.8996  -0.8743  -0.4080  -0.3952   1.7482   1.8130   3.1289   3.2419
     3.5060   3.6543   4.7359   4.7399   6.4896   6.6310   6.8267   6.8878
     8.1910   8.2026   9.6272   9.6657   9.6704   9.8592  11.4726  11.6371
    11.8057  12.1149  13.2128  13.4685

          k = 0.4833 0.2791 0.0000 (  3370 PWs)   bands (ev):

    -0.9185  -0.8920  -0.4183  -0.4012   1.7595   1.8239   3.1360   3.2501
     3.5155   3.6641   4.7386   4.7427   6.4937   6.6399   6.7980   6.8889
     8.1665   8.1780   9.6475   9.6525   9.6912   9.8524  11.4684  11.6616
    11.8539  12.1199  13.2139  13.4360

          k = 0.4667 0.2694 0.0000 (  3380 PWs)   bands (ev):

    -0.9738  -0.9442  -0.4468  -0.4208   1.7920   1.8554   3.1570   3.2742
     3.5434   3.6929   4.7468   4.7509   6.5062   6.6665   6.7315   6.8759
     8.0969   8.1077   9.6153   9.7043   9.7495   9.8342  11.4554  11.7404
    11.9855  12.1344  13.2171  13.3782

          k = 0.4500 0.2598 0.0000 (  3374 PWs)   bands (ev):

    -1.0608  -1.0270  -0.4906  -0.4547   1.8418   1.9041   3.1910   3.3133
     3.5876   3.7385   4.7605   4.7646   6.5276   6.6439   6.7099   6.8413
     7.9915   8.0015   9.5613   9.7893   9.8100   9.8367  11.4325  11.8762
    12.1566  12.1792  13.2225  13.3171

          k = 0.4333 0.2502 0.0000 (  3384 PWs)   bands (ev):

    -1.1737  -1.1355  -0.5482  -0.5019   1.9039   1.9657   3.2367   3.3660
     3.6444   3.7974   4.7796   4.7836   6.5452   6.5581   6.7687   6.7893
     7.8603   7.8691   9.4988   9.7847   9.8933   9.9435  11.3982  12.0626
    12.1828  12.4177  13.2296  13.2635

          k = 0.4167 0.2406 0.0000 (  3390 PWs)   bands (ev):

    -1.3067  -1.2643  -0.6174  -0.5609   1.9734   2.0358   3.2926   3.4306
     3.7088   3.8648   4.8039   4.8078   6.4451   6.5975   6.7278   6.8422
     7.7114   7.7190   9.4357   9.7622  10.0097  10.0630  11.3521  12.2072
    12.2897  12.6876  13.2248  13.2382

          k = 0.4000 0.2309 0.0000 (  3390 PWs)   bands (ev):

    -1.4542  -1.4080  -0.6963  -0.6298   2.0461   2.1106   3.3570   3.5053
     3.7743   3.9343   4.8333   4.8372   6.3529   6.6451   6.6664   6.9292
     7.5507   7.5573   9.3780   9.7447  10.1339  10.1906  11.2953  12.2211
    12.5472  12.9781  13.2070  13.2480

          k = 0.3833 0.2213 0.0000 (  3388 PWs)   bands (ev):

    -1.6116  -1.5622  -0.7830  -0.7067   2.1186   2.1874   3.4282   3.5884
     3.8333   3.9985   4.8678   4.8716   6.2776   6.6157   6.6995   7.0287
     7.3828   7.3885   9.3306   9.7342  10.2634  10.3234  11.2300  12.2149
    12.8243  13.2165  13.2584  13.2791

          k = 0.3667 0.2117 0.0000 (  3392 PWs)   bands (ev):

    -1.7754  -1.7230  -0.8753  -0.7899   2.1880   2.2637   3.5048   3.6781
     3.8792   4.0504   4.9070   4.9108   6.2259   6.5849   6.7589   7.1392
     7.2106   7.2155   9.2977   9.7323  10.3964  10.4599  11.1605  12.1811
    13.1086  13.2590  13.2688  13.4934

          k = 0.3500 0.2021 0.0000 (  3382 PWs)   bands (ev):

    -1.9421  -1.8874  -0.9717  -0.8776   2.2518   2.3376   3.5856   3.7733
     3.9076   4.0845   4.9509   4.9546   6.2011   6.5814   6.8212   7.0371
     7.0412   7.2591   9.2837   9.7413  10.5326  10.5994  11.0916  12.1188
    13.2785  13.3366  13.3799  13.4949

          k = 0.3333 0.1925 0.0000 (  3376 PWs)   bands (ev):

    -2.1096  -2.0530  -1.0706  -0.9681   2.3074   2.4070   3.6697   3.8727
     3.9185   4.0987   4.9991   5.0026   6.2022   6.6085   6.8638   6.8674
     6.8834   7.3862   9.2927   9.7635  10.6716  10.7415  11.0284  12.0332
    13.2869  13.4461  13.4941  13.6005

          k = 0.3167 0.1828 0.0000 (  3378 PWs)   bands (ev):

    -2.2759  -2.2176  -1.1706  -1.0602   2.3516   2.4696   3.7563   3.9159
     3.9756   4.0954   5.0513   5.0547   6.2232   6.6649   6.6926   6.6956
     6.9425   7.5178   9.3288   9.8020  10.8133  10.8861  10.9762  11.9325
    13.2932  13.4902  13.5819  13.7283

          k = 0.3000 0.1732 0.0000 (  3378 PWs)   bands (ev):

    -2.4393  -2.3798  -1.2706  -1.1524   2.3811   2.5225   3.8449   3.9078
     4.0803   4.0815   5.1071   5.1104   6.2560   6.5248   6.5273   6.7448
     6.9950   7.6505   9.3961   9.8600  10.9396  10.9580  11.0333  11.8256
    13.2964  13.4824  13.7378  13.7768

          k = 0.2833 0.1636 0.0000 (  3362 PWs)   bands (ev):

    -2.5986  -2.5380  -1.3693  -1.2440   2.3929   2.5622   3.9031   3.9353
     4.0618   4.1899   5.1663   5.1695   6.2918   6.3615   6.3637   6.8400
     7.0376   7.7801   9.4974   9.9412  10.9236  11.1058  11.1834  11.7207
    13.2958  13.4702  13.7881  13.9071

          k = 0.2667 0.1540 0.0000 (  3358 PWs)   bands (ev):

    -2.7527  -2.6914  -1.4658  -1.3338   2.3848   2.5855   3.9095   4.0273
     4.0487   4.3006   5.2282   5.2313   6.2037   6.2055   6.3237   6.9415
     7.0671   7.9016   9.6339  10.0487  10.9306  11.2568  11.3363  11.6254
    13.2906  13.4527  13.7844  14.0818

          k = 0.2500 0.1443 0.0000 (  3344 PWs)   bands (ev):

    -2.9007  -2.8387  -1.5594  -1.4213   2.3569   2.5898   3.9317   4.0484
     4.1210   4.4136   5.2924   5.2953   6.0523   6.0539   6.3471   7.0410
     7.0812   8.0092   9.8052  10.1852  10.9632  11.4112  11.4924  11.5474
    13.2801  13.4294  13.7741  14.2506

          k = 0.2333 0.1347 0.0000 (  3344 PWs)   bands (ev):

    -3.0419  -2.9795  -1.6495  -1.5055   2.3111   2.5745   3.9713   4.0653
     4.2162   4.5287   5.3584   5.3611   5.9080   5.9093   6.3599   7.0783
     7.1322   8.0968  10.0087  10.3517  11.0226  11.4939  11.5689  11.6514
    13.2639  13.4002  13.7599  14.3965

          k = 0.2167 0.1251 0.0000 (  3340 PWs)   bands (ev):

    -3.1755  -3.1128  -1.7353  -1.5860   2.2512   2.5413   4.0271   4.1007
     4.3132   4.6460   5.4254   5.4280   5.7715   5.7726   6.3623   7.0578
     7.2114   8.1585  10.2408  10.5479  11.1082  11.4711  11.7300  11.8134
    13.2416  13.3649  13.7430  14.4970

          k = 0.2000 0.1155 0.0000 (  3336 PWs)   bands (ev):

    -3.3011  -3.2382  -1.8165  -1.6622   2.1818   2.4936   4.0964   4.1530
     4.4119   4.7655   5.4928   5.4952   5.6433   5.6442   6.3553   7.0204
     7.2769   8.1898  10.4971  10.7715  11.2185  11.4834  11.8940  11.9780
    13.2133  13.3237  13.7235  14.5348

          k = 0.1833 0.1058 0.0000 (  3348 PWs)   bands (ev):

    -3.4182  -3.3552  -1.8926  -1.7337   2.1069   2.4360   4.1757   4.2187
     4.5124   4.8870   5.5237   5.5245   5.5598   5.5621   6.3410   6.9672
     7.3286   8.1889  10.7725  11.0189  11.3505  11.5327  12.0605  12.1448
    13.1794  13.2773  13.7013  14.5128

          k = 0.1667 0.0962 0.0000 (  3342 PWs)   bands (ev):

    -3.5263  -3.4633  -1.9630  -1.8000   2.0303   2.3728   4.2617   4.2943
     4.6149   5.0105   5.4135   5.4141   5.6256   5.6276   6.3213   6.9001
     7.3680   8.1566  11.0622  11.2856  11.5005  11.6174  12.2289  12.3130
    13.1407  13.2266  13.6764  14.4505

          k = 0.1500 0.0866 0.0000 (  3336 PWs)   bands (ev):

    -3.6250  -3.5621  -2.0276  -1.8609   1.9549   2.3076   4.3511   4.3756
     4.7192   5.1356   5.3128   5.3133   5.6893   5.6912   6.2982   6.8212
     7.3967   8.0962  11.3608  11.5663  11.6638  11.7332  12.3980  12.4815
    13.0983  13.1728  13.6488  14.3673

          k = 0.1333 0.0770 0.0000 (  3324 PWs)   bands (ev):

    -3.7142  -3.6512  -2.0861  -1.9160   1.8831   2.2436   4.4410   4.4592
     4.8253   5.2219   5.2224   5.2617   5.7500   5.7517   6.2734   6.7326
     7.4169   8.0131  11.6630  11.8350  11.8549  11.8743  12.5665  12.6490
    13.0537  13.1175  13.6189  14.2767

          k = 0.1167 0.0674 0.0000 (  3332 PWs)   bands (ev):

    -3.7935  -3.7306  -2.1382  -1.9652   1.8166   2.1831   4.5282   4.5416
     4.9329   5.1411   5.1415   5.3878   5.8066   5.8081   6.2485   6.6363
     7.4303   7.9129  11.9631  12.0071  12.0344  12.1451  12.7323  12.8133
    13.0084  13.0624  13.5874  14.1869

          k = 0.1000 0.0577 0.0000 (  3336 PWs)   bands (ev):

    -3.8627  -3.7998  -2.1838  -2.0082   1.7569   2.1279   4.6105   4.6200
     5.0415   5.0706   5.0710   5.5127   5.8582   5.8596   6.2246   6.5345
     7.4388   7.8017  12.1763  12.2032  12.2549  12.4295  12.8926  12.9645
    12.9717  13.0094  13.5556  14.1030

          k = 0.0833 0.0481 0.0000 (  3342 PWs)   bands (ev):

    -3.9216  -3.8588  -2.2226  -2.0449   1.7049   2.0793   4.6851   4.6916
     5.0108   5.0110   5.1505   5.6343   5.9039   5.9051   6.2029   6.4292
     7.4437   7.6857  12.3403  12.3681  12.5307  12.7001  12.9237  12.9602
    13.0441  13.1206  13.5258  14.0281

          k = 0.0667 0.0385 0.0000 (  3344 PWs)   bands (ev):

    -3.9700  -3.9072  -2.2546  -2.0751   1.6615   2.0385   4.7499   4.7540
     4.9616   4.9618   5.2586   5.7493   5.9427   5.9438   6.1840   6.3227
     7.4463   7.5714  12.4931  12.5191  12.7805  12.8879  12.9167  12.9474
    13.1817  13.2553  13.5016  13.9643

          k = 0.0500 0.0289 0.0000 (  3349 PWs)   bands (ev):

    -4.0077  -3.9450  -2.2796  -2.0987   1.6272   2.0060   4.8027   4.8049
     4.9232   4.9234   5.3632   5.8528   5.9739   5.9748   6.1687   6.2185
     7.4473   7.4660  12.6261  12.6478  12.8587  12.8805  12.9906  13.1603
    13.2999  13.3702  13.4886  13.9132

          k = 0.0333 0.0192 0.0000 (  3351 PWs)   bands (ev):

    -4.0348  -3.9721  -2.2975  -2.1154   1.6024   1.9824   4.8416   4.8427
     4.8957   4.8958   5.4591   5.9378   5.9966   5.9975   6.1223   6.1574
     7.3786   7.4476  12.7304  12.7464  12.8374  12.8530  13.1421  13.3265
    13.3916  13.4589  13.4951  13.8758

          k = 0.0167 0.0096 0.0000 (  3345 PWs)   bands (ev):

    -4.0510  -3.9883  -2.3083  -2.1256   1.5875   1.9682   4.8657   4.8659
     4.8793   4.8793   5.5344   5.9949   6.0105   6.0114   6.0469   6.1505
     7.3196   7.4476  12.7976  12.8082  12.8249  12.8353  13.2220  13.4334
    13.4502  13.5152  13.5196  13.8530

          k = 0.0000 0.0000 0.0000 (  3337 PWs)   bands (ev):

    -4.0564  -3.9937  -2.3118  -2.1289   1.5825   1.9634   4.8738   4.8738
     4.8738   4.8738   5.5651   6.0151   6.0152   6.0160   6.0160   6.1482
     7.2986   7.4476  12.8210  12.8210  12.8290  12.8291  13.2441  13.4704
    13.4704  13.5345  13.5345  13.8453

     Writing all to output data dir ./MoS2.save/ :
     XML data file, pseudopotentials, collected wavefunctions

     init_run     :      0.43s CPU      0.89s WALL (       1 calls)
     electrons    :    247.29s CPU    254.16s WALL (       1 calls)

     Called by init_run:
     wfcinit      :      0.00s CPU      0.00s WALL (       1 calls)
     wfcinit:atom :      0.18s CPU      0.26s WALL (      91 calls)
     wfcinit:wfcr :     22.15s CPU     22.65s WALL (      91 calls)
     potinit      :      0.02s CPU      0.03s WALL (       1 calls)
     hinit0       :      0.38s CPU      0.83s WALL (       1 calls)

     Called by electrons:
     c_bands      :    247.29s CPU    254.16s WALL (       1 calls)
     v_of_rho     :      0.02s CPU      0.03s WALL (       1 calls)
     v_h          :      0.00s CPU      0.00s WALL (       1 calls)
     v_xc         :      0.02s CPU      0.02s WALL (       1 calls)

     Called by c_bands:
     init_us_2    :      0.10s CPU      0.15s WALL (      91 calls)
     ccgdiagg     :    213.27s CPU    219.32s WALL (     310 calls)
     wfcrot       :     32.68s CPU     33.31s WALL (     310 calls)

     Called by sum_band:

     Called by *cgdiagg:
     h_psi        :    172.29s CPU    177.21s WALL (  101631 calls)

     Called by h_psi:
     h_psi:calbec :     42.24s CPU     43.30s WALL (  101631 calls)
     vloc_psi     :     86.03s CPU     88.83s WALL (  101631 calls)
     add_vuspsi   :     41.98s CPU     43.05s WALL (  101631 calls)
     hs_1psi      :    154.00s CPU    158.34s WALL (  101321 calls)
     s_1psi       :     33.34s CPU     34.25s WALL (  101321 calls)

     General routines
     calbec       :     73.69s CPU     75.85s WALL (  202952 calls)
     fft          :      0.34s CPU      0.79s WALL (      10 calls)
     fftw         :     65.42s CPU     67.56s WALL (  232378 calls)
     davcio       :      0.07s CPU      0.13s WALL (     182 calls)

     Parallel routines

     PWSCF        :   4m 7.82s CPU   4m15.29s WALL


   This run was terminated on:  15:38:21   5Nov2024            

=------------------------------------------------------------------------------=
   JOB DONE.
=------------------------------------------------------------------------------=
