
     Program PWSCF v.7.3.1 starts on  5Nov2024 at 14:38:15 

     This program is part of the open-source Quantum ESPRESSO suite
     for quantum simulation of materials; please cite
         "P. Giannozzi et al., J. Phys.:Condens. Matter 21 395502 (2009);
         "P. Giannozzi et al., J. Phys.:Condens. Matter 29 465901 (2017);
         "P. Giannozzi et al., J. Chem. Phys. 152 154105 (2020);
          URL http://www.quantum-espresso.org", 
     in publications or presentations arising from this work. More details at
     http://www.quantum-espresso.org/quote

     Parallel version (MPI), running on     8 processors

     MPI processes distributed on     1 nodes
     11417 MiB available memory on the printing compute node when the environment starts

     Reading input from MoS2.scf.in

     Current dimensions of program PWSCF are:
     Max number of different atomic species (ntypx) = 10
     Max number of k-points (npk) =  40000
     Max angular momentum in pseudopotentials (lmaxx) =  4
     file S.pbe-mt_fhi.UPF: wavefunction(s)  4f renormalized
     file Mo.pbe-mt_fhi.UPF: wavefunction(s)  4f renormalized

     R & G space division:  proc/nbgrp/npool/nimage =       8
     Subspace diagonalization in iterative solution of the eigenvalue problem:
     a serial algorithm will be used


     Parallelization info
     --------------------
     sticks:   dense  smooth     PW     G-vecs:    dense   smooth      PW
     Min          45      45     14                 3355     3355     582
     Max          46      46     16                 3372     3372     591
     Sum         367     367    121                26935    26935    4705

     Using Slab Decomposition



     bravais-lattice index     =            4
     lattice parameter (alat)  =       6.0288  a.u.
     unit-cell volume          =     885.0514 (a.u.)^3
     number of atoms/cell      =            6
     number of atomic types    =            2
     number of electrons       =        28.00
     number of Kohn-Sham states=           28
     kinetic-energy cutoff     =      37.0000  Ry
     charge density cutoff     =     148.0000  Ry
     scf convergence threshold =      1.0E-10
     mixing beta               =       0.7000
     number of iterations used =            8  plain     mixing
     Exchange-correlation= PBE
                           (   1   4   3   4   0   0   0)

     celldm(1)=   6.028823  celldm(2)=   0.000000  celldm(3)=   4.663803
     celldm(4)=   0.000000  celldm(5)=   0.000000  celldm(6)=   0.000000

     crystal axes: (cart. coord. in units of alat)
               a(1) = (   1.000000   0.000000   0.000000 )  
               a(2) = (  -0.500000   0.866025   0.000000 )  
               a(3) = (   0.000000   0.000000   4.663803 )  

     reciprocal axes: (cart. coord. in units 2 pi/alat)
               b(1) = (  1.000000  0.577350 -0.000000 )  
               b(2) = (  0.000000  1.154701  0.000000 )  
               b(3) = (  0.000000 -0.000000  0.214417 )  


     PseudoPot. # 1 for Si read from file:
     /home/dashlander/Desktop/Sem7/CPD/Assignment_3/pseudo/S.pbe-mt_fhi.UPF
     MD5 check sum: 936ced7c0a940b77f90a1c67a4d593c3
     Pseudo is Norm-conserving, Zval =  4.0
     Generated using FHI98PP, converted with fhi2upf.x v.5.0.2
     Using radial grid of  495 points,  3 beta functions with: 
                l(1) =   0
                l(2) =   1
                l(3) =   3

     PseudoPot. # 2 for Mo read from file:
     /home/dashlander/Desktop/Sem7/CPD/Assignment_3/pseudo/Mo.pbe-mt_fhi.UPF
     MD5 check sum: ec8b92c563a31a89c2fc8f5e099e6c6b
     Pseudo is Norm-conserving, Zval =  6.0
     Generated using FHI98PP, converted with fhi2upf.x v.5.0.2
     Using radial grid of  541 points,  3 beta functions with: 
                l(1) =   0
                l(2) =   2
                l(3) =   3

     atomic species   valence    mass     pseudopotential
     S                 4.00    32.06500     Si( 1.00)
     Mo                6.00    95.94000     Mo( 1.00)

     24 Sym. Ops., with inversion, found (12 have fractional translation)


                                    s                        frac. trans.

      isym =  1     identity                                     

 cryst.   s( 1) = (     1          0          0      )
                  (     0          1          0      )
                  (     0          0          1      )

 cart.    s( 1) = (  1.0000000  0.0000000  0.0000000 )
                  (  0.0000000  1.0000000  0.0000000 )
                  (  0.0000000  0.0000000  1.0000000 )


      isym =  2     180 deg rotation - cart. axis [0,0,1]        

 cryst.   s( 2) = (    -1          0          0      )    f =(  0.0000000 )
                  (     0         -1          0      )       (  0.0000000 )
                  (     0          0          1      )       ( -0.5000000 )

 cart.    s( 2) = ( -1.0000000  0.0000000  0.0000000 )    f =(  0.0000000 )
                  (  0.0000000 -1.0000000  0.0000000 )       (  0.0000000 )
                  (  0.0000000  0.0000000  1.0000000 )       ( -2.3319013 )


      isym =  3     180 deg rotation - cart. axis [0,1,0]        

 cryst.   s( 3) = (    -1          0          0      )    f =(  0.0000010 )
                  (     1          1          0      )       (  0.0000000 )
                  (     0          0         -1      )       (  0.5000000 )

 cart.    s( 3) = ( -1.0000000  0.0000000  0.0000000 )    f =(  0.0000010 )
                  (  0.0000000  1.0000000  0.0000000 )       (  0.0000000 )
                  (  0.0000000  0.0000000 -1.0000000 )       (  2.3319013 )


      isym =  4     180 deg rotation - cart. axis [1,0,0]        

 cryst.   s( 4) = (     1          0          0      )
                  (    -1         -1          0      )
                  (     0          0         -1      )

 cart.    s( 4) = (  1.0000000  0.0000000  0.0000000 )
                  (  0.0000000 -1.0000000  0.0000000 )
                  (  0.0000000  0.0000000 -1.0000000 )


      isym =  5      60 deg rotation - cryst. axis [0,0,1]       

 cryst.   s( 5) = (     1          1          0      )    f =(  0.0000010 )
                  (    -1          0          0      )       (  0.0000000 )
                  (     0          0          1      )       ( -0.5000000 )

 cart.    s( 5) = (  0.5000000 -0.8660254  0.0000000 )    f =(  0.0000010 )
                  (  0.8660254  0.5000000  0.0000000 )       (  0.0000000 )
                  (  0.0000000  0.0000000  1.0000000 )       ( -2.3319013 )


      isym =  6      60 deg rotation - cryst. axis [0,0,-1]      

 cryst.   s( 6) = (     0         -1          0      )    f =(  0.0000000 )
                  (     1          1          0      )       ( -0.0000010 )
                  (     0          0          1      )       ( -0.5000000 )

 cart.    s( 6) = (  0.5000000  0.8660254  0.0000000 )    f =(  0.0000005 )
                  ( -0.8660254  0.5000000  0.0000000 )       ( -0.0000009 )
                  (  0.0000000  0.0000000  1.0000000 )       ( -2.3319013 )


      isym =  7     120 deg rotation - cryst. axis [0,0,1]       

 cryst.   s( 7) = (     0          1          0      )
                  (    -1         -1          0      )
                  (     0          0          1      )

 cart.    s( 7) = ( -0.5000000 -0.8660254  0.0000000 )
                  (  0.8660254 -0.5000000  0.0000000 )
                  (  0.0000000  0.0000000  1.0000000 )


      isym =  8     120 deg rotation - cryst. axis [0,0,-1]      

 cryst.   s( 8) = (    -1         -1          0      )
                  (     1          0          0      )
                  (     0          0          1      )

 cart.    s( 8) = ( -0.5000000  0.8660254  0.0000000 )
                  ( -0.8660254 -0.5000000  0.0000000 )
                  (  0.0000000  0.0000000  1.0000000 )


      isym =  9     180 deg rotation - cryst. axis [1,-1,0]      

 cryst.   s( 9) = (     0         -1          0      )    f =(  0.0000000 )
                  (    -1          0          0      )       (  0.0000000 )
                  (     0          0         -1      )       (  0.5000000 )

 cart.    s( 9) = (  0.5000000 -0.8660254  0.0000000 )    f =(  0.0000000 )
                  ( -0.8660254 -0.5000000  0.0000000 )       (  0.0000000 )
                  (  0.0000000  0.0000000 -1.0000000 )       (  2.3319013 )


      isym = 10     180 deg rotation - cryst. axis [2,1,0]       

 cryst.   s(10) = (     1          1          0      )    f =(  0.0000000 )
                  (     0         -1          0      )       ( -0.0000010 )
                  (     0          0         -1      )       (  0.5000000 )

 cart.    s(10) = (  0.5000000  0.8660254  0.0000000 )    f =(  0.0000005 )
                  (  0.8660254 -0.5000000  0.0000000 )       ( -0.0000009 )
                  (  0.0000000  0.0000000 -1.0000000 )       (  2.3319013 )


      isym = 11     180 deg rotation - cryst. axis [0,1,0]       

 cryst.   s(11) = (    -1         -1          0      )
                  (     0          1          0      )
                  (     0          0         -1      )

 cart.    s(11) = ( -0.5000000 -0.8660254  0.0000000 )
                  ( -0.8660254  0.5000000  0.0000000 )
                  (  0.0000000  0.0000000 -1.0000000 )


      isym = 12     180 deg rotation - cryst. axis [1,1,0]       

 cryst.   s(12) = (     0          1          0      )
                  (     1          0          0      )
                  (     0          0         -1      )

 cart.    s(12) = ( -0.5000000  0.8660254  0.0000000 )
                  (  0.8660254  0.5000000  0.0000000 )
                  (  0.0000000  0.0000000 -1.0000000 )


      isym = 13     inversion                                    

 cryst.   s(13) = (    -1          0          0      )
                  (     0         -1          0      )
                  (     0          0         -1      )

 cart.    s(13) = ( -1.0000000  0.0000000  0.0000000 )
                  (  0.0000000 -1.0000000  0.0000000 )
                  (  0.0000000  0.0000000 -1.0000000 )


      isym = 14     inv. 180 deg rotation - cart. axis [0,0,1]   

 cryst.   s(14) = (     1          0          0      )    f =(  0.0000000 )
                  (     0          1          0      )       (  0.0000000 )
                  (     0          0         -1      )       (  0.5000000 )

 cart.    s(14) = (  1.0000000  0.0000000  0.0000000 )    f =(  0.0000000 )
                  (  0.0000000  1.0000000  0.0000000 )       (  0.0000000 )
                  (  0.0000000  0.0000000 -1.0000000 )       (  2.3319013 )


      isym = 15     inv. 180 deg rotation - cart. axis [0,1,0]   

 cryst.   s(15) = (     1          0          0      )    f =(  0.0000010 )
                  (    -1         -1          0      )       (  0.0000000 )
                  (     0          0          1      )       ( -0.5000000 )

 cart.    s(15) = (  1.0000000  0.0000000  0.0000000 )    f =(  0.0000010 )
                  (  0.0000000 -1.0000000  0.0000000 )       (  0.0000000 )
                  (  0.0000000  0.0000000  1.0000000 )       ( -2.3319013 )


      isym = 16     inv. 180 deg rotation - cart. axis [1,0,0]   

 cryst.   s(16) = (    -1          0          0      )
                  (     1          1          0      )
                  (     0          0          1      )

 cart.    s(16) = ( -1.0000000  0.0000000  0.0000000 )
                  (  0.0000000  1.0000000  0.0000000 )
                  (  0.0000000  0.0000000  1.0000000 )


      isym = 17     inv.  60 deg rotation - cryst. axis [0,0,1]  

 cryst.   s(17) = (    -1         -1          0      )    f =(  0.0000010 )
                  (     1          0          0      )       (  0.0000000 )
                  (     0          0         -1      )       (  0.5000000 )

 cart.    s(17) = ( -0.5000000  0.8660254  0.0000000 )    f =(  0.0000010 )
                  ( -0.8660254 -0.5000000  0.0000000 )       (  0.0000000 )
                  (  0.0000000  0.0000000 -1.0000000 )       (  2.3319013 )


      isym = 18     inv.  60 deg rotation - cryst. axis [0,0,-1] 

 cryst.   s(18) = (     0          1          0      )    f =(  0.0000000 )
                  (    -1         -1          0      )       ( -0.0000010 )
                  (     0          0         -1      )       (  0.5000000 )

 cart.    s(18) = ( -0.5000000 -0.8660254  0.0000000 )    f =(  0.0000005 )
                  (  0.8660254 -0.5000000  0.0000000 )       ( -0.0000009 )
                  (  0.0000000  0.0000000 -1.0000000 )       (  2.3319013 )


      isym = 19     inv. 120 deg rotation - cryst. axis [0,0,1]  

 cryst.   s(19) = (     0         -1          0      )
                  (     1          1          0      )
                  (     0          0         -1      )

 cart.    s(19) = (  0.5000000  0.8660254  0.0000000 )
                  ( -0.8660254  0.5000000  0.0000000 )
                  (  0.0000000  0.0000000 -1.0000000 )


      isym = 20     inv. 120 deg rotation - cryst. axis [0,0,-1] 

 cryst.   s(20) = (     1          1          0      )
                  (    -1          0          0      )
                  (     0          0         -1      )

 cart.    s(20) = (  0.5000000 -0.8660254  0.0000000 )
                  (  0.8660254  0.5000000  0.0000000 )
                  (  0.0000000  0.0000000 -1.0000000 )


      isym = 21     inv. 180 deg rotation - cryst. axis [1,-1,0] 

 cryst.   s(21) = (     0          1          0      )    f =(  0.0000000 )
                  (     1          0          0      )       (  0.0000000 )
                  (     0          0          1      )       ( -0.5000000 )

 cart.    s(21) = ( -0.5000000  0.8660254  0.0000000 )    f =( -0.0000000 )
                  (  0.8660254  0.5000000  0.0000000 )       (  0.0000000 )
                  (  0.0000000  0.0000000  1.0000000 )       ( -2.3319013 )


      isym = 22     inv. 180 deg rotation - cryst. axis [2,1,0]  

 cryst.   s(22) = (    -1         -1          0      )    f =(  0.0000000 )
                  (     0          1          0      )       ( -0.0000010 )
                  (     0          0          1      )       ( -0.5000000 )

 cart.    s(22) = ( -0.5000000 -0.8660254  0.0000000 )    f =(  0.0000005 )
                  ( -0.8660254  0.5000000  0.0000000 )       ( -0.0000009 )
                  (  0.0000000  0.0000000  1.0000000 )       ( -2.3319013 )


      isym = 23     inv. 180 deg rotation - cryst. axis [0,1,0]  

 cryst.   s(23) = (     1          1          0      )
                  (     0         -1          0      )
                  (     0          0          1      )

 cart.    s(23) = (  0.5000000  0.8660254  0.0000000 )
                  (  0.8660254 -0.5000000  0.0000000 )
                  (  0.0000000  0.0000000  1.0000000 )


      isym = 24     inv. 180 deg rotation - cryst. axis [1,1,0]  

 cryst.   s(24) = (     0         -1          0      )
                  (    -1          0          0      )
                  (     0          0          1      )

 cart.    s(24) = (  0.5000000 -0.8660254  0.0000000 )
                  ( -0.8660254 -0.5000000  0.0000000 )
                  (  0.0000000  0.0000000  1.0000000 )


     point group D_6h(6/mmm)
     there are 12 classes
     the character table:

       E     2C6   2C3   C2    3C2'  3C2'' i     2S3   2S6   s_h   3s_d  3s_v 
A_1g   1.00  1.00  1.00  1.00  1.00  1.00  1.00  1.00  1.00  1.00  1.00  1.00
A_2g   1.00  1.00  1.00  1.00 -1.00 -1.00  1.00  1.00  1.00  1.00 -1.00 -1.00
B_1g   1.00 -1.00  1.00 -1.00  1.00 -1.00  1.00 -1.00  1.00 -1.00  1.00 -1.00
B_2g   1.00 -1.00  1.00 -1.00 -1.00  1.00  1.00 -1.00  1.00 -1.00 -1.00  1.00
E_1g   2.00  1.00 -1.00 -2.00  0.00  0.00  2.00  1.00 -1.00 -2.00  0.00  0.00
E_2g   2.00 -1.00 -1.00  2.00  0.00  0.00  2.00 -1.00 -1.00  2.00  0.00  0.00
A_1u   1.00  1.00  1.00  1.00  1.00  1.00 -1.00 -1.00 -1.00 -1.00 -1.00 -1.00
A_2u   1.00  1.00  1.00  1.00 -1.00 -1.00 -1.00 -1.00 -1.00 -1.00  1.00  1.00
B_1u   1.00 -1.00  1.00 -1.00  1.00 -1.00 -1.00  1.00 -1.00  1.00 -1.00  1.00
B_2u   1.00 -1.00  1.00 -1.00 -1.00  1.00 -1.00  1.00 -1.00  1.00  1.00 -1.00
E_1u   2.00  1.00 -1.00 -2.00  0.00  0.00 -2.00 -1.00  1.00  2.00  0.00  0.00
E_2u   2.00 -1.00 -1.00  2.00  0.00  0.00 -2.00  1.00  1.00 -2.00  0.00  0.00

     the symmetry operations in each class and the name of the first element:

     E        1
          identity                                               
     2C6      5    6
           60 deg rotation - cryst. axis [0,0,1]                 
     2C3      7    8
          120 deg rotation - cryst. axis [0,0,1]                 
     C2       2
          180 deg rotation - cart. axis [0,0,1]                  
     3C2'     4   12   11
          180 deg rotation - cart. axis [1,0,0]                  
     3C2''    3    9   10
          180 deg rotation - cart. axis [0,1,0]                  
     i       13
          inversion                                              
     2S3     17   18
          inv.  60 deg rotation - cryst. axis [0,0,1]            
     2S6     19   20
          inv. 120 deg rotation - cryst. axis [0,0,1]            
     s_h     14
          inv. 180 deg rotation - cart. axis [0,0,1]             
     3s_d    16   24   23
          inv. 180 deg rotation - cart. axis [1,0,0]             
     3s_v    15   21   22
          inv. 180 deg rotation - cart. axis [0,1,0]             

   Cartesian axes

     site n.     atom                  positions (alat units)
         1        S      tau(   1) = (  -0.0000005   0.5773506   0.6727329  )
         2        S      tau(   2) = (   0.5000005   0.2886748   3.0046342  )
         3        S      tau(   3) = (  -0.0000005   0.5773506   1.6591684  )
         4        S      tau(   4) = (   0.5000005   0.2886748   3.9910697  )
         5        Mo     tau(   5) = (   0.5000005   0.2886748   1.1659506  )
         6        Mo     tau(   6) = (  -0.0000005   0.5773506   3.4978519  )

   Crystallographic axes

     site n.     atom                  positions (cryst. coord.)
         1        S      tau(   1) = (  0.3333330  0.6666670  0.1442456  )
         2        S      tau(   2) = (  0.6666670  0.3333330  0.6442456  )
         3        S      tau(   3) = (  0.3333330  0.6666670  0.3557544  )
         4        S      tau(   4) = (  0.6666670  0.3333330  0.8557544  )
         5        Mo     tau(   5) = (  0.6666670  0.3333330  0.2500000  )
         6        Mo     tau(   6) = (  0.3333330  0.6666670  0.7500000  )

     number of k points=   133
                       cart. coord. in units 2pi/alat
        k(    1) = (   0.0000000   0.0000000   0.0000000), wk =   0.0011574
        k(    2) = (   0.0000000   0.0000000   0.0178681), wk =   0.0023148
        k(    3) = (   0.0000000   0.0000000   0.0357362), wk =   0.0023148
        k(    4) = (   0.0000000   0.0000000   0.0536043), wk =   0.0023148
        k(    5) = (   0.0000000   0.0000000   0.0714724), wk =   0.0023148
        k(    6) = (   0.0000000   0.0000000   0.0893405), wk =   0.0023148
        k(    7) = (   0.0000000   0.0000000  -0.1072087), wk =   0.0011574
        k(    8) = (   0.0000000   0.0962250   0.0000000), wk =   0.0069444
        k(    9) = (   0.0000000   0.0962250   0.0178681), wk =   0.0138889
        k(   10) = (   0.0000000   0.0962250   0.0357362), wk =   0.0138889
        k(   11) = (   0.0000000   0.0962250   0.0536043), wk =   0.0138889
        k(   12) = (   0.0000000   0.0962250   0.0714724), wk =   0.0138889
        k(   13) = (   0.0000000   0.0962250   0.0893405), wk =   0.0138889
        k(   14) = (   0.0000000   0.0962250  -0.1072087), wk =   0.0069444
        k(   15) = (   0.0000000   0.1924501   0.0000000), wk =   0.0069444
        k(   16) = (   0.0000000   0.1924501   0.0178681), wk =   0.0138889
        k(   17) = (   0.0000000   0.1924501   0.0357362), wk =   0.0138889
        k(   18) = (   0.0000000   0.1924501   0.0536043), wk =   0.0138889
        k(   19) = (   0.0000000   0.1924501   0.0714724), wk =   0.0138889
        k(   20) = (   0.0000000   0.1924501   0.0893405), wk =   0.0138889
        k(   21) = (   0.0000000   0.1924501  -0.1072087), wk =   0.0069444
        k(   22) = (   0.0000000   0.2886751   0.0000000), wk =   0.0069444
        k(   23) = (   0.0000000   0.2886751   0.0178681), wk =   0.0138889
        k(   24) = (   0.0000000   0.2886751   0.0357362), wk =   0.0138889
        k(   25) = (   0.0000000   0.2886751   0.0536043), wk =   0.0138889
        k(   26) = (   0.0000000   0.2886751   0.0714724), wk =   0.0138889
        k(   27) = (   0.0000000   0.2886751   0.0893405), wk =   0.0138889
        k(   28) = (   0.0000000   0.2886751  -0.1072087), wk =   0.0069444
        k(   29) = (   0.0000000   0.3849002   0.0000000), wk =   0.0069444
        k(   30) = (   0.0000000   0.3849002   0.0178681), wk =   0.0138889
        k(   31) = (   0.0000000   0.3849002   0.0357362), wk =   0.0138889
        k(   32) = (   0.0000000   0.3849002   0.0536043), wk =   0.0138889
        k(   33) = (   0.0000000   0.3849002   0.0714724), wk =   0.0138889
        k(   34) = (   0.0000000   0.3849002   0.0893405), wk =   0.0138889
        k(   35) = (   0.0000000   0.3849002  -0.1072087), wk =   0.0069444
        k(   36) = (   0.0000000   0.4811252   0.0000000), wk =   0.0069444
        k(   37) = (   0.0000000   0.4811252   0.0178681), wk =   0.0138889
        k(   38) = (   0.0000000   0.4811252   0.0357362), wk =   0.0138889
        k(   39) = (   0.0000000   0.4811252   0.0536043), wk =   0.0138889
        k(   40) = (   0.0000000   0.4811252   0.0714724), wk =   0.0138889
        k(   41) = (   0.0000000   0.4811252   0.0893405), wk =   0.0138889
        k(   42) = (   0.0000000   0.4811252  -0.1072087), wk =   0.0069444
        k(   43) = (   0.0000000  -0.5773503   0.0000000), wk =   0.0034722
        k(   44) = (   0.0000000  -0.5773503   0.0178681), wk =   0.0069444
        k(   45) = (   0.0000000  -0.5773503   0.0357362), wk =   0.0069444
        k(   46) = (   0.0000000  -0.5773503   0.0536043), wk =   0.0069444
        k(   47) = (   0.0000000  -0.5773503   0.0714724), wk =   0.0069444
        k(   48) = (   0.0000000  -0.5773503   0.0893405), wk =   0.0069444
        k(   49) = (   0.0000000  -0.5773503  -0.1072087), wk =   0.0034722
        k(   50) = (   0.0833333   0.1443376   0.0000000), wk =   0.0069444
        k(   51) = (   0.0833333   0.1443376   0.0178681), wk =   0.0138889
        k(   52) = (   0.0833333   0.1443376   0.0357362), wk =   0.0138889
        k(   53) = (   0.0833333   0.1443376   0.0536043), wk =   0.0138889
        k(   54) = (   0.0833333   0.1443376   0.0714724), wk =   0.0138889
        k(   55) = (   0.0833333   0.1443376   0.0893405), wk =   0.0138889
        k(   56) = (   0.0833333   0.1443376  -0.1072087), wk =   0.0069444
        k(   57) = (   0.0833333   0.2405626   0.0000000), wk =   0.0138889
        k(   58) = (   0.0833333   0.2405626   0.0178681), wk =   0.0277778
        k(   59) = (   0.0833333   0.2405626   0.0357362), wk =   0.0277778
        k(   60) = (   0.0833333   0.2405626   0.0536043), wk =   0.0277778
        k(   61) = (   0.0833333   0.2405626   0.0714724), wk =   0.0277778
        k(   62) = (   0.0833333   0.2405626   0.0893405), wk =   0.0277778
        k(   63) = (   0.0833333   0.2405626  -0.1072087), wk =   0.0138889
        k(   64) = (   0.0833333   0.3367877   0.0000000), wk =   0.0138889
        k(   65) = (   0.0833333   0.3367877   0.0178681), wk =   0.0277778
        k(   66) = (   0.0833333   0.3367877   0.0357362), wk =   0.0277778
        k(   67) = (   0.0833333   0.3367877   0.0536043), wk =   0.0277778
        k(   68) = (   0.0833333   0.3367877   0.0714724), wk =   0.0277778
        k(   69) = (   0.0833333   0.3367877   0.0893405), wk =   0.0277778
        k(   70) = (   0.0833333   0.3367877  -0.1072087), wk =   0.0138889
        k(   71) = (   0.0833333   0.4330127   0.0000000), wk =   0.0138889
        k(   72) = (   0.0833333   0.4330127   0.0178681), wk =   0.0277778
        k(   73) = (   0.0833333   0.4330127   0.0357362), wk =   0.0277778
        k(   74) = (   0.0833333   0.4330127   0.0536043), wk =   0.0277778
        k(   75) = (   0.0833333   0.4330127   0.0714724), wk =   0.0277778
        k(   76) = (   0.0833333   0.4330127   0.0893405), wk =   0.0277778
        k(   77) = (   0.0833333   0.4330127  -0.1072087), wk =   0.0138889
        k(   78) = (   0.0833333   0.5292377   0.0000000), wk =   0.0138889
        k(   79) = (   0.0833333   0.5292377   0.0178681), wk =   0.0277778
        k(   80) = (   0.0833333   0.5292377   0.0357362), wk =   0.0277778
        k(   81) = (   0.0833333   0.5292377   0.0536043), wk =   0.0277778
        k(   82) = (   0.0833333   0.5292377   0.0714724), wk =   0.0277778
        k(   83) = (   0.0833333   0.5292377   0.0893405), wk =   0.0277778
        k(   84) = (   0.0833333   0.5292377  -0.1072087), wk =   0.0138889
        k(   85) = (   0.1666667   0.2886751   0.0000000), wk =   0.0069444
        k(   86) = (   0.1666667   0.2886751   0.0178681), wk =   0.0138889
        k(   87) = (   0.1666667   0.2886751   0.0357362), wk =   0.0138889
        k(   88) = (   0.1666667   0.2886751   0.0536043), wk =   0.0138889
        k(   89) = (   0.1666667   0.2886751   0.0714724), wk =   0.0138889
        k(   90) = (   0.1666667   0.2886751   0.0893405), wk =   0.0138889
        k(   91) = (   0.1666667   0.2886751  -0.1072087), wk =   0.0069444
        k(   92) = (   0.1666667   0.3849002   0.0000000), wk =   0.0138889
        k(   93) = (   0.1666667   0.3849002   0.0178681), wk =   0.0277778
        k(   94) = (   0.1666667   0.3849002   0.0357362), wk =   0.0277778
        k(   95) = (   0.1666667   0.3849002   0.0536043), wk =   0.0277778
        k(   96) = (   0.1666667   0.3849002   0.0714724), wk =   0.0277778
        k(   97) = (   0.1666667   0.3849002   0.0893405), wk =   0.0277778
        k(   98) = (   0.1666667   0.3849002  -0.1072087), wk =   0.0138889
        k(   99) = (   0.1666667   0.4811252   0.0000000), wk =   0.0138889
        k(  100) = (   0.1666667   0.4811252   0.0178681), wk =   0.0277778
        k(  101) = (   0.1666667   0.4811252   0.0357362), wk =   0.0277778
        k(  102) = (   0.1666667   0.4811252   0.0536043), wk =   0.0277778
        k(  103) = (   0.1666667   0.4811252   0.0714724), wk =   0.0277778
        k(  104) = (   0.1666667   0.4811252   0.0893405), wk =   0.0277778
        k(  105) = (   0.1666667   0.4811252  -0.1072087), wk =   0.0138889
        k(  106) = (   0.1666667   0.5773503   0.0000000), wk =   0.0069444
        k(  107) = (   0.1666667   0.5773503   0.0178681), wk =   0.0138889
        k(  108) = (   0.1666667   0.5773503   0.0357362), wk =   0.0138889
        k(  109) = (   0.1666667   0.5773503   0.0536043), wk =   0.0138889
        k(  110) = (   0.1666667   0.5773503   0.0714724), wk =   0.0138889
        k(  111) = (   0.1666667   0.5773503   0.0893405), wk =   0.0138889
        k(  112) = (   0.1666667   0.5773503  -0.1072087), wk =   0.0069444
        k(  113) = (   0.2500000   0.4330127   0.0000000), wk =   0.0069444
        k(  114) = (   0.2500000   0.4330127   0.0178681), wk =   0.0138889
        k(  115) = (   0.2500000   0.4330127   0.0357362), wk =   0.0138889
        k(  116) = (   0.2500000   0.4330127   0.0536043), wk =   0.0138889
        k(  117) = (   0.2500000   0.4330127   0.0714724), wk =   0.0138889
        k(  118) = (   0.2500000   0.4330127   0.0893405), wk =   0.0138889
        k(  119) = (   0.2500000   0.4330127  -0.1072087), wk =   0.0069444
        k(  120) = (   0.2500000   0.5292377   0.0000000), wk =   0.0138889
        k(  121) = (   0.2500000   0.5292377   0.0178681), wk =   0.0277778
        k(  122) = (   0.2500000   0.5292377   0.0357362), wk =   0.0277778
        k(  123) = (   0.2500000   0.5292377   0.0536043), wk =   0.0277778
        k(  124) = (   0.2500000   0.5292377   0.0714724), wk =   0.0277778
        k(  125) = (   0.2500000   0.5292377   0.0893405), wk =   0.0277778
        k(  126) = (   0.2500000   0.5292377  -0.1072087), wk =   0.0138889
        k(  127) = (   0.3333333   0.5773503   0.0000000), wk =   0.0023148
        k(  128) = (   0.3333333   0.5773503   0.0178681), wk =   0.0046296
        k(  129) = (   0.3333333   0.5773503   0.0357362), wk =   0.0046296
        k(  130) = (   0.3333333   0.5773503   0.0536043), wk =   0.0046296
        k(  131) = (   0.3333333   0.5773503   0.0714724), wk =   0.0046296
        k(  132) = (   0.3333333   0.5773503   0.0893405), wk =   0.0046296
        k(  133) = (   0.3333333   0.5773503  -0.1072087), wk =   0.0023148

                       cryst. coord.
        k(    1) = (   0.0000000   0.0000000   0.0000000), wk =   0.0011574
        k(    2) = (   0.0000000   0.0000000   0.0833333), wk =   0.0023148
        k(    3) = (   0.0000000   0.0000000   0.1666667), wk =   0.0023148
        k(    4) = (   0.0000000   0.0000000   0.2500000), wk =   0.0023148
        k(    5) = (   0.0000000   0.0000000   0.3333333), wk =   0.0023148
        k(    6) = (   0.0000000   0.0000000   0.4166667), wk =   0.0023148
        k(    7) = (   0.0000000   0.0000000  -0.5000000), wk =   0.0011574
        k(    8) = (   0.0000000   0.0833333   0.0000000), wk =   0.0069444
        k(    9) = (   0.0000000   0.0833333   0.0833333), wk =   0.0138889
        k(   10) = (   0.0000000   0.0833333   0.1666667), wk =   0.0138889
        k(   11) = (   0.0000000   0.0833333   0.2500000), wk =   0.0138889
        k(   12) = (   0.0000000   0.0833333   0.3333333), wk =   0.0138889
        k(   13) = (   0.0000000   0.0833333   0.4166667), wk =   0.0138889
        k(   14) = (   0.0000000   0.0833333  -0.5000000), wk =   0.0069444
        k(   15) = (   0.0000000   0.1666667   0.0000000), wk =   0.0069444
        k(   16) = (   0.0000000   0.1666667   0.0833333), wk =   0.0138889
        k(   17) = (   0.0000000   0.1666667   0.1666667), wk =   0.0138889
        k(   18) = (   0.0000000   0.1666667   0.2500000), wk =   0.0138889
        k(   19) = (   0.0000000   0.1666667   0.3333333), wk =   0.0138889
        k(   20) = (   0.0000000   0.1666667   0.4166667), wk =   0.0138889
        k(   21) = (   0.0000000   0.1666667  -0.5000000), wk =   0.0069444
        k(   22) = (   0.0000000   0.2500000   0.0000000), wk =   0.0069444
        k(   23) = (   0.0000000   0.2500000   0.0833333), wk =   0.0138889
        k(   24) = (   0.0000000   0.2500000   0.1666667), wk =   0.0138889
        k(   25) = (   0.0000000   0.2500000   0.2500000), wk =   0.0138889
        k(   26) = (   0.0000000   0.2500000   0.3333333), wk =   0.0138889
        k(   27) = (   0.0000000   0.2500000   0.4166667), wk =   0.0138889
        k(   28) = (   0.0000000   0.2500000  -0.5000000), wk =   0.0069444
        k(   29) = (   0.0000000   0.3333333   0.0000000), wk =   0.0069444
        k(   30) = (   0.0000000   0.3333333   0.0833333), wk =   0.0138889
        k(   31) = (   0.0000000   0.3333333   0.1666667), wk =   0.0138889
        k(   32) = (   0.0000000   0.3333333   0.2500000), wk =   0.0138889
        k(   33) = (   0.0000000   0.3333333   0.3333333), wk =   0.0138889
        k(   34) = (   0.0000000   0.3333333   0.4166667), wk =   0.0138889
        k(   35) = (   0.0000000   0.3333333  -0.5000000), wk =   0.0069444
        k(   36) = (   0.0000000   0.4166667   0.0000000), wk =   0.0069444
        k(   37) = (   0.0000000   0.4166667   0.0833333), wk =   0.0138889
        k(   38) = (   0.0000000   0.4166667   0.1666667), wk =   0.0138889
        k(   39) = (   0.0000000   0.4166667   0.2500000), wk =   0.0138889
        k(   40) = (   0.0000000   0.4166667   0.3333333), wk =   0.0138889
        k(   41) = (   0.0000000   0.4166667   0.4166667), wk =   0.0138889
        k(   42) = (   0.0000000   0.4166667  -0.5000000), wk =   0.0069444
        k(   43) = (   0.0000000  -0.5000000   0.0000000), wk =   0.0034722
        k(   44) = (   0.0000000  -0.5000000   0.0833333), wk =   0.0069444
        k(   45) = (   0.0000000  -0.5000000   0.1666667), wk =   0.0069444
        k(   46) = (   0.0000000  -0.5000000   0.2500000), wk =   0.0069444
        k(   47) = (   0.0000000  -0.5000000   0.3333333), wk =   0.0069444
        k(   48) = (   0.0000000  -0.5000000   0.4166667), wk =   0.0069444
        k(   49) = (   0.0000000  -0.5000000  -0.5000000), wk =   0.0034722
        k(   50) = (   0.0833333   0.0833333   0.0000000), wk =   0.0069444
        k(   51) = (   0.0833333   0.0833333   0.0833333), wk =   0.0138889
        k(   52) = (   0.0833333   0.0833333   0.1666667), wk =   0.0138889
        k(   53) = (   0.0833333   0.0833333   0.2500000), wk =   0.0138889
        k(   54) = (   0.0833333   0.0833333   0.3333333), wk =   0.0138889
        k(   55) = (   0.0833333   0.0833333   0.4166667), wk =   0.0138889
        k(   56) = (   0.0833333   0.0833333  -0.5000000), wk =   0.0069444
        k(   57) = (   0.0833333   0.1666667   0.0000000), wk =   0.0138889
        k(   58) = (   0.0833333   0.1666667   0.0833333), wk =   0.0277778
        k(   59) = (   0.0833333   0.1666667   0.1666667), wk =   0.0277778
        k(   60) = (   0.0833333   0.1666667   0.2500000), wk =   0.0277778
        k(   61) = (   0.0833333   0.1666667   0.3333333), wk =   0.0277778
        k(   62) = (   0.0833333   0.1666667   0.4166667), wk =   0.0277778
        k(   63) = (   0.0833333   0.1666667  -0.5000000), wk =   0.0138889
        k(   64) = (   0.0833333   0.2500000   0.0000000), wk =   0.0138889
        k(   65) = (   0.0833333   0.2500000   0.0833333), wk =   0.0277778
        k(   66) = (   0.0833333   0.2500000   0.1666667), wk =   0.0277778
        k(   67) = (   0.0833333   0.2500000   0.2500000), wk =   0.0277778
        k(   68) = (   0.0833333   0.2500000   0.3333333), wk =   0.0277778
        k(   69) = (   0.0833333   0.2500000   0.4166667), wk =   0.0277778
        k(   70) = (   0.0833333   0.2500000  -0.5000000), wk =   0.0138889
        k(   71) = (   0.0833333   0.3333333   0.0000000), wk =   0.0138889
        k(   72) = (   0.0833333   0.3333333   0.0833333), wk =   0.0277778
        k(   73) = (   0.0833333   0.3333333   0.1666667), wk =   0.0277778
        k(   74) = (   0.0833333   0.3333333   0.2500000), wk =   0.0277778
        k(   75) = (   0.0833333   0.3333333   0.3333333), wk =   0.0277778
        k(   76) = (   0.0833333   0.3333333   0.4166667), wk =   0.0277778
        k(   77) = (   0.0833333   0.3333333  -0.5000000), wk =   0.0138889
        k(   78) = (   0.0833333   0.4166667   0.0000000), wk =   0.0138889
        k(   79) = (   0.0833333   0.4166667   0.0833333), wk =   0.0277778
        k(   80) = (   0.0833333   0.4166667   0.1666667), wk =   0.0277778
        k(   81) = (   0.0833333   0.4166667   0.2500000), wk =   0.0277778
        k(   82) = (   0.0833333   0.4166667   0.3333333), wk =   0.0277778
        k(   83) = (   0.0833333   0.4166667   0.4166667), wk =   0.0277778
        k(   84) = (   0.0833333   0.4166667  -0.5000000), wk =   0.0138889
        k(   85) = (   0.1666667   0.1666667   0.0000000), wk =   0.0069444
        k(   86) = (   0.1666667   0.1666667   0.0833333), wk =   0.0138889
        k(   87) = (   0.1666667   0.1666667   0.1666667), wk =   0.0138889
        k(   88) = (   0.1666667   0.1666667   0.2500000), wk =   0.0138889
        k(   89) = (   0.1666667   0.1666667   0.3333333), wk =   0.0138889
        k(   90) = (   0.1666667   0.1666667   0.4166667), wk =   0.0138889
        k(   91) = (   0.1666667   0.1666667  -0.5000000), wk =   0.0069444
        k(   92) = (   0.1666667   0.2500000   0.0000000), wk =   0.0138889
        k(   93) = (   0.1666667   0.2500000   0.0833333), wk =   0.0277778
        k(   94) = (   0.1666667   0.2500000   0.1666667), wk =   0.0277778
        k(   95) = (   0.1666667   0.2500000   0.2500000), wk =   0.0277778
        k(   96) = (   0.1666667   0.2500000   0.3333333), wk =   0.0277778
        k(   97) = (   0.1666667   0.2500000   0.4166667), wk =   0.0277778
        k(   98) = (   0.1666667   0.2500000  -0.5000000), wk =   0.0138889
        k(   99) = (   0.1666667   0.3333333   0.0000000), wk =   0.0138889
        k(  100) = (   0.1666667   0.3333333   0.0833333), wk =   0.0277778
        k(  101) = (   0.1666667   0.3333333   0.1666667), wk =   0.0277778
        k(  102) = (   0.1666667   0.3333333   0.2500000), wk =   0.0277778
        k(  103) = (   0.1666667   0.3333333   0.3333333), wk =   0.0277778
        k(  104) = (   0.1666667   0.3333333   0.4166667), wk =   0.0277778
        k(  105) = (   0.1666667   0.3333333  -0.5000000), wk =   0.0138889
        k(  106) = (   0.1666667   0.4166667   0.0000000), wk =   0.0069444
        k(  107) = (   0.1666667   0.4166667   0.0833333), wk =   0.0138889
        k(  108) = (   0.1666667   0.4166667   0.1666667), wk =   0.0138889
        k(  109) = (   0.1666667   0.4166667   0.2500000), wk =   0.0138889
        k(  110) = (   0.1666667   0.4166667   0.3333333), wk =   0.0138889
        k(  111) = (   0.1666667   0.4166667   0.4166667), wk =   0.0138889
        k(  112) = (   0.1666667   0.4166667  -0.5000000), wk =   0.0069444
        k(  113) = (   0.2500000   0.2500000   0.0000000), wk =   0.0069444
        k(  114) = (   0.2500000   0.2500000   0.0833333), wk =   0.0138889
        k(  115) = (   0.2500000   0.2500000   0.1666667), wk =   0.0138889
        k(  116) = (   0.2500000   0.2500000   0.2500000), wk =   0.0138889
        k(  117) = (   0.2500000   0.2500000   0.3333333), wk =   0.0138889
        k(  118) = (   0.2500000   0.2500000   0.4166667), wk =   0.0138889
        k(  119) = (   0.2500000   0.2500000  -0.5000000), wk =   0.0069444
        k(  120) = (   0.2500000   0.3333333   0.0000000), wk =   0.0138889
        k(  121) = (   0.2500000   0.3333333   0.0833333), wk =   0.0277778
        k(  122) = (   0.2500000   0.3333333   0.1666667), wk =   0.0277778
        k(  123) = (   0.2500000   0.3333333   0.2500000), wk =   0.0277778
        k(  124) = (   0.2500000   0.3333333   0.3333333), wk =   0.0277778
        k(  125) = (   0.2500000   0.3333333   0.4166667), wk =   0.0277778
        k(  126) = (   0.2500000   0.3333333  -0.5000000), wk =   0.0138889
        k(  127) = (   0.3333333   0.3333333   0.0000000), wk =   0.0023148
        k(  128) = (   0.3333333   0.3333333   0.0833333), wk =   0.0046296
        k(  129) = (   0.3333333   0.3333333   0.1666667), wk =   0.0046296
        k(  130) = (   0.3333333   0.3333333   0.2500000), wk =   0.0046296
        k(  131) = (   0.3333333   0.3333333   0.3333333), wk =   0.0046296
        k(  132) = (   0.3333333   0.3333333   0.4166667), wk =   0.0046296
        k(  133) = (   0.3333333   0.3333333  -0.5000000), wk =   0.0023148

     Dense  grid:    26935 G-vectors     FFT dimensions: (  24,  24, 120)

     Dynamical RAM for                 wfc:       0.18 MB

     Dynamical RAM for     wfc (w. buffer):      24.05 MB

     Dynamical RAM for           str. fact:       0.10 MB

     Dynamical RAM for           local pot:       0.00 MB

     Dynamical RAM for          nlocal pot:       0.45 MB

     Dynamical RAM for                qrad:       0.78 MB

     Dynamical RAM for          rho,v,vnew:       0.35 MB

     Dynamical RAM for               rhoin:       0.12 MB

     Dynamical RAM for            rho*nmix:       0.82 MB

     Dynamical RAM for           G-vectors:       0.22 MB

     Dynamical RAM for          h,s,v(r/c):       0.04 MB

     Dynamical RAM for          <psi|beta>:       0.03 MB

     Dynamical RAM for      wfcinit/wfcrot:       1.44 MB

     Estimated static dynamical RAM per process >      26.55 MB

     Estimated max dynamical RAM per process >      28.82 MB

     Estimated total dynamical RAM >     230.52 MB

     Initial potential from superposition of free atoms

     starting charge      27.9929, renormalised to      28.0000
     Starting wfcs are   96 randomized atomic wfcs

     total cpu time spent up to now is        6.2 secs

     Self-consistent Calculation

     iteration #  1     ecut=    37.00 Ry     beta= 0.70
     CG style diagonalization

---- Real-time Memory Report at c_bands before calling an iterative solver
            85 MiB given to the printing process from OS
             0 MiB allocation reported by mallinfo(arena+hblkhd)
         11226 MiB available memory on the node where the printing process lives
------------------
     ethr =  1.00E-02,  avg # of iterations =  2.8

     total cpu time spent up to now is       10.8 secs

     total energy              =     -57.59021361 Ry
     estimated scf accuracy    <       8.57037563 Ry

     iteration #  2     ecut=    37.00 Ry     beta= 0.70
     CG style diagonalization

---- Real-time Memory Report at c_bands before calling an iterative solver
            86 MiB given to the printing process from OS
             0 MiB allocation reported by mallinfo(arena+hblkhd)
         11232 MiB available memory on the node where the printing process lives
------------------
     ethr =  1.00E-02,  avg # of iterations =  6.2

     total cpu time spent up to now is       21.1 secs

     total energy              =     -54.78070484 Ry
     estimated scf accuracy    <      90.22871698 Ry

     iteration #  3     ecut=    37.00 Ry     beta= 0.70
     CG style diagonalization

---- Real-time Memory Report at c_bands before calling an iterative solver
            86 MiB given to the printing process from OS
             0 MiB allocation reported by mallinfo(arena+hblkhd)
         11220 MiB available memory on the node where the printing process lives
------------------
     ethr =  1.00E-02,  avg # of iterations =  6.0

     total cpu time spent up to now is       31.2 secs

     total energy              =     -63.16588845 Ry
     estimated scf accuracy    <       2.12291334 Ry

     iteration #  4     ecut=    37.00 Ry     beta= 0.70
     CG style diagonalization

---- Real-time Memory Report at c_bands before calling an iterative solver
            86 MiB given to the printing process from OS
             0 MiB allocation reported by mallinfo(arena+hblkhd)
         11224 MiB available memory on the node where the printing process lives
------------------
     ethr =  7.58E-03,  avg # of iterations =  3.0

     total cpu time spent up to now is       36.0 secs

     total energy              =     -63.34046832 Ry
     estimated scf accuracy    <       0.44685408 Ry

     iteration #  5     ecut=    37.00 Ry     beta= 0.70
     CG style diagonalization

---- Real-time Memory Report at c_bands before calling an iterative solver
            86 MiB given to the printing process from OS
             0 MiB allocation reported by mallinfo(arena+hblkhd)
         11236 MiB available memory on the node where the printing process lives
------------------
     ethr =  1.60E-03,  avg # of iterations =  3.7

     total cpu time spent up to now is       42.1 secs

     total energy              =     -63.41201674 Ry
     estimated scf accuracy    <       0.06341742 Ry

     iteration #  6     ecut=    37.00 Ry     beta= 0.70
     CG style diagonalization

---- Real-time Memory Report at c_bands before calling an iterative solver
            86 MiB given to the printing process from OS
             0 MiB allocation reported by mallinfo(arena+hblkhd)
         11228 MiB available memory on the node where the printing process lives
------------------
     ethr =  2.26E-04,  avg # of iterations =  4.2

     total cpu time spent up to now is       48.9 secs

     total energy              =     -63.43572830 Ry
     estimated scf accuracy    <       0.00573898 Ry

     iteration #  7     ecut=    37.00 Ry     beta= 0.70
     CG style diagonalization

---- Real-time Memory Report at c_bands before calling an iterative solver
            86 MiB given to the printing process from OS
             0 MiB allocation reported by mallinfo(arena+hblkhd)
         11229 MiB available memory on the node where the printing process lives
------------------
     c_bands:  1 eigenvalues not converged
     c_bands:  1 eigenvalues not converged
     c_bands:  1 eigenvalues not converged
     c_bands:  1 eigenvalues not converged
     c_bands:  1 eigenvalues not converged
     c_bands:  1 eigenvalues not converged
     c_bands:  2 eigenvalues not converged
     c_bands:  1 eigenvalues not converged
     c_bands:  1 eigenvalues not converged
     c_bands:  1 eigenvalues not converged
     c_bands:  1 eigenvalues not converged
     c_bands:  1 eigenvalues not converged
     ethr =  2.05E-05,  avg # of iterations =  4.1

     total cpu time spent up to now is       56.1 secs

     total energy              =     -63.43523404 Ry
     estimated scf accuracy    <       0.02451486 Ry

     iteration #  8     ecut=    37.00 Ry     beta= 0.70
     CG style diagonalization

---- Real-time Memory Report at c_bands before calling an iterative solver
            86 MiB given to the printing process from OS
             0 MiB allocation reported by mallinfo(arena+hblkhd)
         11235 MiB available memory on the node where the printing process lives
------------------
     ethr =  2.05E-05,  avg # of iterations =  3.0

     total cpu time spent up to now is       61.1 secs

     total energy              =     -63.43464746 Ry
     estimated scf accuracy    <       0.00611670 Ry

     iteration #  9     ecut=    37.00 Ry     beta= 0.70
     CG style diagonalization

---- Real-time Memory Report at c_bands before calling an iterative solver
            86 MiB given to the printing process from OS
             0 MiB allocation reported by mallinfo(arena+hblkhd)
         11234 MiB available memory on the node where the printing process lives
------------------
     ethr =  2.05E-05,  avg # of iterations =  3.0

     total cpu time spent up to now is       66.4 secs

     total energy              =     -63.43553895 Ry
     estimated scf accuracy    <       0.00005080 Ry

     iteration # 10     ecut=    37.00 Ry     beta= 0.70
     CG style diagonalization

---- Real-time Memory Report at c_bands before calling an iterative solver
            86 MiB given to the printing process from OS
             0 MiB allocation reported by mallinfo(arena+hblkhd)
         11221 MiB available memory on the node where the printing process lives
------------------
     c_bands:  2 eigenvalues not converged
     c_bands:  1 eigenvalues not converged
     c_bands:  1 eigenvalues not converged
     c_bands:  1 eigenvalues not converged
     c_bands:  1 eigenvalues not converged
     c_bands:  1 eigenvalues not converged
     c_bands:  1 eigenvalues not converged
     c_bands:  1 eigenvalues not converged
     c_bands:  1 eigenvalues not converged
     c_bands:  1 eigenvalues not converged
     ethr =  1.81E-07,  avg # of iterations =  4.2

     total cpu time spent up to now is       74.4 secs

     total energy              =     -63.43555699 Ry
     estimated scf accuracy    <       0.00025415 Ry

     iteration # 11     ecut=    37.00 Ry     beta= 0.70
     CG style diagonalization

---- Real-time Memory Report at c_bands before calling an iterative solver
            86 MiB given to the printing process from OS
             0 MiB allocation reported by mallinfo(arena+hblkhd)
         11225 MiB available memory on the node where the printing process lives
------------------
     c_bands:  1 eigenvalues not converged
     ethr =  1.81E-07,  avg # of iterations =  3.3

     total cpu time spent up to now is       79.7 secs

     total energy              =     -63.43557567 Ry
     estimated scf accuracy    <       0.00000855 Ry

     iteration # 12     ecut=    37.00 Ry     beta= 0.70
     CG style diagonalization

---- Real-time Memory Report at c_bands before calling an iterative solver
            86 MiB given to the printing process from OS
             0 MiB allocation reported by mallinfo(arena+hblkhd)
         11228 MiB available memory on the node where the printing process lives
------------------
     ethr =  3.05E-08,  avg # of iterations =  3.5

     total cpu time spent up to now is       86.3 secs

     total energy              =     -63.43557880 Ry
     estimated scf accuracy    <       0.00002390 Ry

     iteration # 13     ecut=    37.00 Ry     beta= 0.70
     CG style diagonalization

---- Real-time Memory Report at c_bands before calling an iterative solver
            86 MiB given to the printing process from OS
             0 MiB allocation reported by mallinfo(arena+hblkhd)
         11230 MiB available memory on the node where the printing process lives
------------------
     ethr =  3.05E-08,  avg # of iterations =  3.0

     total cpu time spent up to now is       91.6 secs

     total energy              =     -63.43557983 Ry
     estimated scf accuracy    <       0.00000206 Ry

     iteration # 14     ecut=    37.00 Ry     beta= 0.70
     CG style diagonalization

---- Real-time Memory Report at c_bands before calling an iterative solver
            86 MiB given to the printing process from OS
             0 MiB allocation reported by mallinfo(arena+hblkhd)
         11228 MiB available memory on the node where the printing process lives
------------------
     ethr =  7.34E-09,  avg # of iterations =  3.1

     total cpu time spent up to now is       96.8 secs

     total energy              =     -63.43558026 Ry
     estimated scf accuracy    <          6.4E-09 Ry

     iteration # 15     ecut=    37.00 Ry     beta= 0.70
     CG style diagonalization

---- Real-time Memory Report at c_bands before calling an iterative solver
            86 MiB given to the printing process from OS
             0 MiB allocation reported by mallinfo(arena+hblkhd)
         11215 MiB available memory on the node where the printing process lives
------------------
     ethr =  2.27E-11,  avg # of iterations =  4.1

     total cpu time spent up to now is      104.5 secs

     total energy              =     -63.43558028 Ry
     estimated scf accuracy    <       0.00000008 Ry

     iteration # 16     ecut=    37.00 Ry     beta= 0.70
     CG style diagonalization

---- Real-time Memory Report at c_bands before calling an iterative solver
            86 MiB given to the printing process from OS
             0 MiB allocation reported by mallinfo(arena+hblkhd)
         11226 MiB available memory on the node where the printing process lives
------------------
     ethr =  2.27E-11,  avg # of iterations =  3.1

     total cpu time spent up to now is      109.6 secs

     total energy              =     -63.43558028 Ry
     estimated scf accuracy    <       0.00000003 Ry

     iteration # 17     ecut=    37.00 Ry     beta= 0.70
     CG style diagonalization

---- Real-time Memory Report at c_bands before calling an iterative solver
            86 MiB given to the printing process from OS
             0 MiB allocation reported by mallinfo(arena+hblkhd)
         11224 MiB available memory on the node where the printing process lives
------------------
     ethr =  2.27E-11,  avg # of iterations =  3.4

     total cpu time spent up to now is      115.5 secs

     End of self-consistent calculation

          k = 0.0000 0.0000 0.0000 (  3337 PWs)   bands (ev):

    -4.0564  -3.9937  -2.3119  -2.1289   1.5825   1.9634   4.8738   4.8738
     4.8738   4.8738   5.5651   6.0152   6.0152   6.0160   6.0161   6.1482
     7.2986   7.4476  12.8210  12.8210  12.8290  12.8291  13.2441  13.4704
    13.4705  13.5345  13.5345  13.8453

     occupation numbers 
     1.0000   1.0000   1.0000   1.0000   1.0000   1.0000   1.0000   1.0000
     1.0000   1.0000   1.0000   1.0000   1.0000   1.0000   0.0000   0.0000
     0.0000   0.0000   0.0000   0.0000   0.0000   0.0000   0.0000   0.0000
     0.0000   0.0000   0.0000   0.0000

          k = 0.0000 0.0000 0.0179 (  3337 PWs)   bands (ev):

    -4.0553  -3.9948  -2.3088  -2.1322   1.5886   1.9565   4.8738   4.8738
     4.8738   4.8738   5.5747   6.0153   6.0153   6.0161   6.0161   6.1374
     7.3024   7.4459  12.8211  12.8211  12.8289  12.8289  13.2527  13.4716
    13.4717  13.5334  13.5335  13.8319

     occupation numbers 
     1.0000   1.0000   1.0000   1.0000   1.0000   1.0000   1.0000   1.0000
     1.0000   1.0000   1.0000   1.0000   1.0000   1.0000   0.0000   0.0000
     0.0000   0.0000   0.0000   0.0000   0.0000   0.0000   0.0000   0.0000
     0.0000   0.0000   0.0000   0.0000

          k = 0.0000 0.0000 0.0357 (  3343 PWs)   bands (ev):

    -4.0524  -3.9982  -2.2999  -2.1416   1.6067   1.9362   4.8738   4.8738
     4.8738   4.8738   5.6029   6.0152   6.0153   6.0160   6.0160   6.1059
     7.3130   7.4406  12.8214  12.8215  12.8284  12.8284  13.2782  13.4748
    13.4748  13.5302  13.5303  13.7931

     occupation numbers 
     1.0000   1.0000   1.0000   1.0000   1.0000   1.0000   1.0000   1.0000
     1.0000   1.0000   1.0000   1.0000   1.0000   1.0000   0.0000   0.0000
     0.0000   0.0000   0.0000   0.0000   0.0000   0.0000   0.0000   0.0000
     0.0000   0.0000   0.0000   0.0000

          k = 0.0000 0.0000 0.0536 (  3348 PWs)   bands (ev):

    -4.0477  -4.0035  -2.2856  -2.1563   1.6357   1.9044   4.8737   4.8737
     4.8738   4.8738   5.6476   6.0153   6.0153   6.0158   6.0159   6.0570
     7.3289   7.4319  12.8220  12.8220  12.8277  12.8277  13.3194  13.4799
    13.4799  13.5252  13.5252  13.7355

     occupation numbers 
     1.0000   1.0000   1.0000   1.0000   1.0000   1.0000   1.0000   1.0000
     1.0000   1.0000   1.0000   1.0000   1.0000   1.0000   0.0000   0.0000
     0.0000   0.0000   0.0000   0.0000   0.0000   0.0000   0.0000   0.0000
     0.0000   0.0000   0.0000   0.0000

          k = 0.0000 0.0000 0.0715 (  3354 PWs)   bands (ev):

    -4.0415  -4.0103  -2.2669  -2.1755   1.6737   1.8635   4.8737   4.8737
     4.8738   4.8738   5.7060   5.9944   6.0154   6.0154   6.0157   6.0158
     7.3478   7.4198  12.8227  12.8228  12.8267  12.8268  13.3742  13.4865
    13.4866  13.5186  13.5186  13.6656

     occupation numbers 
     1.0000   1.0000   1.0000   1.0000   1.0000   1.0000   1.0000   1.0000
     1.0000   1.0000   1.0000   1.0000   1.0000   1.0000   0.0000   0.0000
     0.0000   0.0000   0.0000   0.0000   0.0000   0.0000   0.0000   0.0000
     0.0000   0.0000   0.0000   0.0000

          k = 0.0000 0.0000 0.0893 (  3360 PWs)   bands (ev):

    -4.0341  -4.0180  -2.2452  -2.1977   1.7185   1.8166   4.8737   4.8737
     4.8738   4.8738   5.7743   5.9233   6.0154   6.0155   6.0156   6.0156
     7.3678   7.4048  12.8236  12.8237  12.8257  12.8257  13.4397  13.4943
    13.4943  13.5109  13.5110  13.5896

     occupation numbers 
     1.0000   1.0000   1.0000   1.0000   1.0000   1.0000   1.0000   1.0000
     1.0000   1.0000   1.0000   1.0000   1.0000   1.0000   0.0000   0.0000
     0.0000   0.0000   0.0000   0.0000   0.0000   0.0000   0.0000   0.0000
     0.0000   0.0000   0.0000   0.0000

          k = 0.0000 0.0000-0.1072 (  3354 PWs)   bands (ev):

    -4.0261  -4.0261  -2.2214  -2.2214   1.7672   1.7672   4.8738   4.8738
     4.8738   4.8738   5.8483   5.8483   6.0155   6.0155   6.0156   6.0156
     7.3872   7.3872  12.8247  12.8247  12.8247  12.8247  13.5026  13.5026
    13.5026  13.5026  13.5129  13.5129

     occupation numbers 
     1.0000   1.0000   1.0000   1.0000   1.0000   1.0000   1.0000   1.0000
     1.0000   1.0000   1.0000   1.0000   1.0000   1.0000   0.0000   0.0000
     0.0000   0.0000   0.0000   0.0000   0.0000   0.0000   0.0000   0.0000
     0.0000   0.0000   0.0000   0.0000

          k = 0.0000 0.0962 0.0000 (  3342 PWs)   bands (ev):

    -3.9216  -3.8588  -2.2226  -2.0449   1.7049   2.0794   4.6851   4.6916
     5.0108   5.0110   5.1505   5.6343   5.9039   5.9051   6.2029   6.4292
     7.4437   7.6857  12.3403  12.3681  12.5307  12.7002  12.9237  12.9602
    13.0441  13.1206  13.5258  14.0281

     occupation numbers 
     1.0000   1.0000   1.0000   1.0000   1.0000   1.0000   1.0000   1.0000
     1.0000   1.0000   1.0000   1.0000   1.0000   1.0000   0.0000   0.0000
     0.0000   0.0000   0.0000   0.0000   0.0000   0.0000   0.0000   0.0000
     0.0000   0.0000   0.0000   0.0000

          k = 0.0000 0.0962 0.0179 (  3345 PWs)   bands (ev):

    -3.9206  -3.8599  -2.2196  -2.0480   1.7110   2.0725   4.6852   4.6914
     5.0108   5.0110   5.1585   5.6247   5.9039   5.9051   6.2086   6.4261
     7.4477   7.6813  12.3407  12.3674  12.5356  12.6989  12.9240  12.9590
    13.0459  13.1195  13.5308  14.0142

     occupation numbers 
     1.0000   1.0000   1.0000   1.0000   1.0000   1.0000   1.0000   1.0000
     1.0000   1.0000   1.0000   1.0000   1.0000   1.0000   0.0000   0.0000
     0.0000   0.0000   0.0000   0.0000   0.0000   0.0000   0.0000   0.0000
     0.0000   0.0000   0.0000   0.0000

          k = 0.0000 0.0962 0.0357 (  3341 PWs)   bands (ev):

    -3.9177  -3.8633  -2.2108  -2.0570   1.7287   2.0525   4.6853   4.6907
     5.0108   5.0110   5.1820   5.5972   5.9040   5.9050   6.2246   6.4172
     7.4593   7.6686  12.3417  12.3655  12.5495  12.6951  12.9251  12.9558
    13.0512  13.1164  13.5458  13.9753

     occupation numbers 
     1.0000   1.0000   1.0000   1.0000   1.0000   1.0000   1.0000   1.0000
     1.0000   1.0000   1.0000   1.0000   1.0000   1.0000   0.0000   0.0000
     0.0000   0.0000   0.0000   0.0000   0.0000   0.0000   0.0000   0.0000
     0.0000   0.0000   0.0000   0.0000

          k = 0.0000 0.0962 0.0536 (  3341 PWs)   bands (ev):

    -3.9129  -3.8685  -2.1969  -2.0713   1.7570   2.0211   4.6856   4.6898
     5.0108   5.0110   5.2191   5.5553   5.9041   5.9049   6.2480   6.4027
     7.4778   7.6485  12.3435  12.3627  12.5703  12.6881  12.9270  12.9513
    13.0588  13.1114  13.5716  13.9182

     occupation numbers 
     1.0000   1.0000   1.0000   1.0000   1.0000   1.0000   1.0000   1.0000
     1.0000   1.0000   1.0000   1.0000   1.0000   1.0000   0.0000   0.0000
     0.0000   0.0000   0.0000   0.0000   0.0000   0.0000   0.0000   0.0000
     0.0000   0.0000   0.0000   0.0000

          k = 0.0000 0.0962 0.0715 (  3346 PWs)   bands (ev):

    -3.9067  -3.8753  -2.1787  -2.0899   1.7942   1.9807   4.6860   4.6889
     5.0109   5.0110   5.2671   5.5030   5.9042   5.9048   6.2755   6.3833
     7.5020   7.6226  12.3458  12.3593  12.5948  12.6774  12.9295  12.9463
    13.0679  13.1046  13.6086  13.8511

     occupation numbers 
     1.0000   1.0000   1.0000   1.0000   1.0000   1.0000   1.0000   1.0000
     1.0000   1.0000   1.0000   1.0000   1.0000   1.0000   0.0000   0.0000
     0.0000   0.0000   0.0000   0.0000   0.0000   0.0000   0.0000   0.0000
     0.0000   0.0000   0.0000   0.0000

          k = 0.0000 0.0962 0.0893 (  3341 PWs)   bands (ev):

    -3.8993  -3.8831  -2.1574  -2.1115   1.8381   1.9346   4.6865   4.6880
     5.0109   5.0110   5.3229   5.4444   5.9044   5.9047   6.3046   6.3598
     7.5306   7.5929  12.3488  12.3557  12.6200  12.6625  12.9328  12.9413
    13.0777  13.0965  13.6569  13.7815

     occupation numbers 
     1.0000   1.0000   1.0000   1.0000   1.0000   1.0000   1.0000   1.0000
     1.0000   1.0000   1.0000   1.0000   1.0000   1.0000   0.0000   0.0000
     0.0000   0.0000   0.0000   0.0000   0.0000   0.0000   0.0000   0.0000
     0.0000   0.0000   0.0000   0.0000

          k = 0.0000 0.0962-0.1072 (  3336 PWs)   bands (ev):

    -3.8912  -3.8912  -2.1345  -2.1345   1.8859   1.8859   4.6872   4.6872
     5.0109   5.0109   5.3832   5.3832   5.9045   5.9045   6.3332   6.3332
     7.5615   7.5615  12.3521  12.3521  12.6431  12.6431  12.9368  12.9368
    13.0874  13.0874  13.7154  13.7154

     occupation numbers 
     1.0000   1.0000   1.0000   1.0000   1.0000   1.0000   1.0000   1.0000
     1.0000   1.0000   1.0000   1.0000   1.0000   1.0000   0.0000   0.0000
     0.0000   0.0000   0.0000   0.0000   0.0000   0.0000   0.0000   0.0000
     0.0000   0.0000   0.0000   0.0000

          k = 0.0000 0.1925 0.0000 (  3342 PWs)   bands (ev):

    -3.5263  -3.4633  -1.9630  -1.8000   2.0303   2.3728   4.2617   4.2943
     4.6149   5.0105   5.4135   5.4141   5.6256   5.6277   6.3213   6.9001
     7.3680   8.1566  11.0622  11.2856  11.5005  11.6174  12.2289  12.3130
    13.1407  13.2266  13.6764  14.4506

     occupation numbers 
     1.0000   1.0000   1.0000   1.0000   1.0000   1.0000   1.0000   1.0000
     1.0000   1.0000   1.0000   1.0000   1.0000   1.0000   0.0000   0.0000
     0.0000   0.0000   0.0000   0.0000   0.0000   0.0000   0.0000   0.0000
     0.0000   0.0000   0.0000   0.0000

          k = 0.0000 0.1925 0.0179 (  3341 PWs)   bands (ev):

    -3.5253  -3.4644  -1.9603  -1.8028   2.0357   2.3664   4.2619   4.2930
     4.6225   5.0039   5.4135   5.4141   5.6257   5.6276   6.3285   6.8795
     7.3919   8.1455  11.0671  11.2827  11.5024  11.6152  12.2302  12.3114
    13.1423  13.2252  13.6865  14.4309

     occupation numbers 
     1.0000   1.0000   1.0000   1.0000   1.0000   1.0000   1.0000   1.0000
     1.0000   1.0000   1.0000   1.0000   1.0000   1.0000   0.0000   0.0000
     0.0000   0.0000   0.0000   0.0000   0.0000   0.0000   0.0000   0.0000
     0.0000   0.0000   0.0000   0.0000

          k = 0.0000 0.1925 0.0357 (  3338 PWs)   bands (ev):

    -3.5223  -3.4678  -1.9521  -1.8110   2.0517   2.3479   4.2627   4.2895
     4.6444   4.9846   5.4136   5.4141   5.6258   5.6275   6.3499   6.8276
     7.4536   8.1130  11.0813  11.2740  11.5079  11.6090  12.2340  12.3068
    13.1471  13.2213  13.7164  14.3761

     occupation numbers 
     1.0000   1.0000   1.0000   1.0000   1.0000   1.0000   1.0000   1.0000
     1.0000   1.0000   1.0000   1.0000   1.0000   1.0000   0.0000   0.0000
     0.0000   0.0000   0.0000   0.0000   0.0000   0.0000   0.0000   0.0000
     0.0000   0.0000   0.0000   0.0000

          k = 0.0000 0.1925 0.0536 (  3342 PWs)   bands (ev):

    -3.5176  -3.4731  -1.9392  -1.8240   2.0774   2.3189   4.2640   4.2849
     4.6782   4.9541   5.4136   5.4140   5.6259   5.6273   6.3841   6.7603
     7.5366   8.0611  11.1031  11.2596  11.5168  11.5993  12.2402  12.2995
    13.1545  13.2150  13.7651  14.2962

     occupation numbers 
     1.0000   1.0000   1.0000   1.0000   1.0000   1.0000   1.0000   1.0000
     1.0000   1.0000   1.0000   1.0000   1.0000   1.0000   0.0000   0.0000
     0.0000   0.0000   0.0000   0.0000   0.0000   0.0000   0.0000   0.0000
     0.0000   0.0000   0.0000   0.0000

          k = 0.0000 0.1925 0.0715 (  3337 PWs)   bands (ev):

    -3.5114  -3.4799  -1.9223  -1.8409   2.1112   2.2817   4.2658   4.2800
     4.7207   4.9145   5.4137   5.4140   5.6262   5.6272   6.4297   6.6880
     7.6298   7.9929  11.1300  11.2402  11.5284  11.5867  12.2484  12.2903
    13.1639  13.2066  13.8309  14.2017

     occupation numbers 
     1.0000   1.0000   1.0000   1.0000   1.0000   1.0000   1.0000   1.0000
     1.0000   1.0000   1.0000   1.0000   1.0000   1.0000   0.0000   0.0000
     0.0000   0.0000   0.0000   0.0000   0.0000   0.0000   0.0000   0.0000
     0.0000   0.0000   0.0000   0.0000

          k = 0.0000 0.1925 0.0893 (  3338 PWs)   bands (ev):

    -3.5040  -3.4877  -1.9027  -1.8605   2.1512   2.2393   4.2683   4.2754
     4.7687   4.8686   5.4137   5.4139   5.6264   5.6269   6.4848   6.6160
     7.7263   7.9118  11.1593  11.2162  11.5421  11.5722  12.2581  12.2798
    13.1746  13.1967  13.9113  14.1016

     occupation numbers 
     1.0000   1.0000   1.0000   1.0000   1.0000   1.0000   1.0000   1.0000
     1.0000   1.0000   1.0000   1.0000   1.0000   1.0000   0.0000   0.0000
     0.0000   0.0000   0.0000   0.0000   0.0000   0.0000   0.0000   0.0000
     0.0000   0.0000   0.0000   0.0000

          k = 0.0000 0.1925-0.1072 (  3346 PWs)   bands (ev):

    -3.4960  -3.4960  -1.8817  -1.8817   2.1948   2.1948   4.2715   4.2715
     4.8189   4.8190   5.4138   5.4138   5.6266   5.6266   6.5475   6.5475
     7.8217   7.8217  11.1887  11.1887  11.5570  11.5570  12.2688  12.2688
    13.1858  13.1858  14.0029  14.0029

     occupation numbers 
     1.0000   1.0000   1.0000   1.0000   1.0000   1.0000   1.0000   1.0000
     1.0000   1.0000   1.0000   1.0000   1.0000   1.0000   0.0000   0.0000
     0.0000   0.0000   0.0000   0.0000   0.0000   0.0000   0.0000   0.0000
     0.0000   0.0000   0.0000   0.0000

          k = 0.0000 0.2887 0.0000 (  3344 PWs)   bands (ev):

    -2.9007  -2.8387  -1.5594  -1.4213   2.3569   2.5898   3.9317   4.0484
     4.1210   4.4136   5.2925   5.2953   6.0523   6.0539   6.3471   7.0410
     7.0812   8.0092   9.8052  10.1852  10.9632  11.4112  11.4924  11.5474
    13.2802  13.4295  13.7741  14.2506

     occupation numbers 
     1.0000   1.0000   1.0000   1.0000   1.0000   1.0000   1.0000   1.0000
     1.0000   1.0000   1.0000   1.0000   1.0000   1.0000   0.0000   0.0000
     0.0000   0.0000   0.0000   0.0000   0.0000   0.0000   0.0000   0.0000
     0.0000   0.0000   0.0000   0.0000

          k = 0.0000 0.2887 0.0179 (  3353 PWs)   bands (ev):

    -2.8997  -2.8399  -1.5571  -1.4236   2.3607   2.5856   3.9324   4.0389
     4.1336   4.4100   5.2925   5.2952   6.0523   6.0539   6.3530   6.9606
     7.1647   7.9980   9.8127  10.1792  10.9719  11.4125  11.4909  11.5349
    13.2828  13.4270  13.7860  14.2443

     occupation numbers 
     1.0000   1.0000   1.0000   1.0000   1.0000   1.0000   1.0000   1.0000
     1.0000   1.0000   1.0000   1.0000   1.0000   1.0000   0.0000   0.0000
     0.0000   0.0000   0.0000   0.0000   0.0000   0.0000   0.0000   0.0000
     0.0000   0.0000   0.0000   0.0000

          k = 0.0000 0.2887 0.0357 (  3353 PWs)   bands (ev):

    -2.8969  -2.8433  -1.5501  -1.4304   2.3718   2.5734   3.9345   4.0205
     4.1613   4.3995   5.2926   5.2951   6.0524   6.0538   6.3708   6.8673
     7.2674   7.9653   9.8346  10.1617  10.9973  11.4163  11.4866  11.4993
    13.2904  13.4196  13.8198  14.2257

     occupation numbers 
     1.0000   1.0000   1.0000   1.0000   1.0000   1.0000   1.0000   1.0000
     1.0000   1.0000   1.0000   1.0000   1.0000   1.0000   0.0000   0.0000
     0.0000   0.0000   0.0000   0.0000   0.0000   0.0000   0.0000   0.0000
     0.0000   0.0000   0.0000   0.0000

          k = 0.0000 0.2887 0.0536 (  3356 PWs)   bands (ev):

    -2.8923  -2.8485  -1.5390  -1.4414   2.3896   2.5540   3.9381   4.0018
     4.1946   4.3824   5.2928   5.2949   6.0526   6.0537   6.4001   6.7784
     7.3716   7.9133   9.8684  10.1337  11.0381  11.4224  11.4449  11.4798
    13.3025  13.4080  13.8696  14.1949

     occupation numbers 
     1.0000   1.0000   1.0000   1.0000   1.0000   1.0000   1.0000   1.0000
     1.0000   1.0000   1.0000   1.0000   1.0000   1.0000   0.0000   0.0000
     0.0000   0.0000   0.0000   0.0000   0.0000   0.0000   0.0000   0.0000
     0.0000   0.0000   0.0000   0.0000

          k = 0.0000 0.2887 0.0715 (  3353 PWs)   bands (ev):

    -2.8861  -2.8552  -1.5246  -1.4556   2.4130   2.5292   3.9433   3.9851
     4.2301   4.3595   5.2931   5.2946   6.0528   6.0535   6.4403   6.6954
     7.4753   7.8451   9.9107  10.0973  11.0921  11.3778  11.4305  11.4710
    13.3182  13.3928  13.9284  14.1539

     occupation numbers 
     1.0000   1.0000   1.0000   1.0000   1.0000   1.0000   1.0000   1.0000
     1.0000   1.0000   1.0000   1.0000   1.0000   1.0000   0.0000   0.0000
     0.0000   0.0000   0.0000   0.0000   0.0000   0.0000   0.0000   0.0000
     0.0000   0.0000   0.0000   0.0000

          k = 0.0000 0.2887 0.0893 (  3347 PWs)   bands (ev):

    -2.8789  -2.8629  -1.5078  -1.4721   2.4405   2.5006   3.9504   3.9711
     4.2657   4.3317   5.2935   5.2943   6.0529   6.0533   6.4908   6.6192
     7.5767   7.7643   9.9581  10.0542  11.1566  11.3038  11.4400  11.4610
    13.3364  13.3750  13.9898  14.1049

     occupation numbers 
     1.0000   1.0000   1.0000   1.0000   1.0000   1.0000   1.0000   1.0000
     1.0000   1.0000   1.0000   1.0000   1.0000   1.0000   0.0000   0.0000
     0.0000   0.0000   0.0000   0.0000   0.0000   0.0000   0.0000   0.0000
     0.0000   0.0000   0.0000   0.0000

          k = 0.0000 0.2887-0.1072 (  3348 PWs)   bands (ev):

    -2.8709  -2.8709  -1.4899  -1.4899   2.4703   2.4703   3.9596   3.9596
     4.3001   4.3001   5.2939   5.2939   6.0531   6.0531   6.5507   6.5507
     7.6738   7.6738  10.0069  10.0069  11.2285  11.2285  11.4504  11.4504
    13.3558  13.3558  14.0495  14.0496

     occupation numbers 
     1.0000   1.0000   1.0000   1.0000   1.0000   1.0000   1.0000   1.0000
     1.0000   1.0000   1.0000   1.0000   1.0000   1.0000   0.0000   0.0000
     0.0000   0.0000   0.0000   0.0000   0.0000   0.0000   0.0000   0.0000
     0.0000   0.0000   0.0000   0.0000

          k = 0.0000 0.3849 0.0000 (  3376 PWs)   bands (ev):

    -2.1096  -2.0530  -1.0706  -0.9681   2.3074   2.4070   3.6697   3.8727
     3.9185   4.0987   4.9991   5.0027   6.2022   6.6085   6.8638   6.8674
     6.8834   7.3862   9.2927   9.7635  10.6716  10.7415  11.0284  12.0332
    13.2870  13.4465  13.4941  13.6007

     occupation numbers 
     1.0000   1.0000   1.0000   1.0000   1.0000   1.0000   1.0000   1.0000
     1.0000   1.0000   1.0000   1.0000   1.0000   1.0000   0.0000   0.0000
     0.0000   0.0000   0.0000   0.0000   0.0000   0.0000   0.0000   0.0000
     0.0000   0.0000   0.0000   0.0000

          k = 0.0000 0.3849 0.0179 (  3378 PWs)   bands (ev):

    -2.1087  -2.0540  -1.0688  -0.9697   2.3091   2.4053   3.6717   3.8591
     3.9318   4.0972   4.9992   5.0026   6.2066   6.5923   6.8639   6.8673
     6.9005   7.3792   9.3006   9.7545  10.6727  10.7403  11.0434  12.0099
    13.2904  13.4439  13.4905  13.5833

     occupation numbers 
     1.0000   1.0000   1.0000   1.0000   1.0000   1.0000   1.0000   1.0000
     1.0000   1.0000   1.0000   1.0000   1.0000   1.0000   0.0000   0.0000
     0.0000   0.0000   0.0000   0.0000   0.0000   0.0000   0.0000   0.0000
     0.0000   0.0000   0.0000   0.0000

          k = 0.0000 0.3849 0.0357 (  3371 PWs)   bands (ev):

    -2.1061  -2.0570  -1.0634  -0.9747   2.3140   2.4002   3.6777   3.8345
     3.9556   4.0927   4.9994   5.0024   6.2196   6.5526   6.8640   6.8672
     6.9431   7.3589   9.3238   9.7287  10.6760  10.7366  11.0872  11.9444
    13.3006  13.4385  13.4800  13.5466

     occupation numbers 
     1.0000   1.0000   1.0000   1.0000   1.0000   1.0000   1.0000   1.0000
     1.0000   1.0000   1.0000   1.0000   1.0000   1.0000   0.0000   0.0000
     0.0000   0.0000   0.0000   0.0000   0.0000   0.0000   0.0000   0.0000
     0.0000   0.0000   0.0000   0.0000

          k = 0.0000 0.3849 0.0536 (  3369 PWs)   bands (ev):

    -2.1019  -2.0618  -1.0550  -0.9826   2.3217   2.3921   3.6874   3.8084
     3.9801   4.0851   4.9997   5.0022   6.2411   6.5024   6.8643   6.8669
     6.9980   7.3265   9.3603   9.6888  10.6814  10.7308  11.1567  11.8470
    13.3168  13.4321  13.4633  13.5090

     occupation numbers 
     1.0000   1.0000   1.0000   1.0000   1.0000   1.0000   1.0000   1.0000
     1.0000   1.0000   1.0000   1.0000   1.0000   1.0000   0.0000   0.0000
     0.0000   0.0000   0.0000   0.0000   0.0000   0.0000   0.0000   0.0000
     0.0000   0.0000   0.0000   0.0000

          k = 0.0000 0.3849 0.0715 (  3374 PWs)   bands (ev):

    -2.0963  -2.0680  -1.0442  -0.9930   2.3319   2.3817   3.7007   3.7829
     4.0036   4.0744   5.0001   5.0018   6.2705   6.4496   6.8647   6.8665
     7.0579   7.2842   9.4077   9.6385  10.6884  10.7233  11.2478  11.7297
    13.3380  13.4282  13.4414  13.4773

     occupation numbers 
     1.0000   1.0000   1.0000   1.0000   1.0000   1.0000   1.0000   1.0000
     1.0000   1.0000   1.0000   1.0000   1.0000   1.0000   0.0000   0.0000
     0.0000   0.0000   0.0000   0.0000   0.0000   0.0000   0.0000   0.0000
     0.0000   0.0000   0.0000   0.0000

          k = 0.0000 0.3849 0.0893 (  3374 PWs)   bands (ev):

    -2.0897  -2.0751  -1.0317  -1.0052   2.3438   2.3696   3.7173   3.7589
     4.0252   4.0608   5.0005   5.0014   6.3070   6.3981   6.8651   6.8660
     7.1187   7.2340   9.4626   9.5816  10.6967  10.7148  11.3561  11.6033
    13.3627  13.4162  13.4295  13.4535

     occupation numbers 
     1.0000   1.0000   1.0000   1.0000   1.0000   1.0000   1.0000   1.0000
     1.0000   1.0000   1.0000   1.0000   1.0000   1.0000   0.0000   0.0000
     0.0000   0.0000   0.0000   0.0000   0.0000   0.0000   0.0000   0.0000
     0.0000   0.0000   0.0000   0.0000

          k = 0.0000 0.3849-0.1072 (  3364 PWs)   bands (ev):

    -2.0824  -2.0824  -1.0183  -1.0183   2.3567   2.3567   3.7369   3.7369
     4.0443   4.0443   5.0010   5.0010   6.3500   6.3500   6.8656   6.8656
     7.1781   7.1781   9.5218   9.5218  10.7057  10.7057  11.4765  11.4765
    13.3894  13.3894  13.4376  13.4377

     occupation numbers 
     1.0000   1.0000   1.0000   1.0000   1.0000   1.0000   1.0000   1.0000
     1.0000   1.0000   1.0000   1.0000   1.0000   1.0000   0.0000   0.0000
     0.0000   0.0000   0.0000   0.0000   0.0000   0.0000   0.0000   0.0000
     0.0000   0.0000   0.0000   0.0000

          k = 0.0000 0.4811 0.0000 (  3390 PWs)   bands (ev):

    -1.3067  -1.2643  -0.6174  -0.5609   1.9734   2.0358   3.2926   3.4306
     3.7088   3.8648   4.8039   4.8078   6.4451   6.5975   6.7278   6.8422
     7.7114   7.7190   9.4357   9.7622  10.0097  10.0630  11.3521  12.2072
    12.2898  12.6877  13.2366  13.4827

     occupation numbers 
     1.0000   1.0000   1.0000   1.0000   1.0000   1.0000   1.0000   1.0000
     1.0000   1.0000   1.0000   1.0000   1.0000   1.0000   0.0000   0.0000
     0.0000   0.0000   0.0000   0.0000   0.0000   0.0000   0.0000   0.0000
     0.0000   0.0000   0.0000   0.0000

          k = 0.0000 0.4811 0.0179 (  3384 PWs)   bands (ev):

    -1.3060  -1.2651  -0.6164  -0.5617   1.9745   2.0347   3.2942   3.4268
     3.7131   3.8630   4.8039   4.8078   6.4471   6.5936   6.7308   6.8404
     7.7116   7.7189   9.4409   9.7560  10.0106  10.0620  11.3643  12.1749
    12.3116  12.6823  13.2381  13.4789

     occupation numbers 
     1.0000   1.0000   1.0000   1.0000   1.0000   1.0000   1.0000   1.0000
     1.0000   1.0000   1.0000   1.0000   1.0000   1.0000   0.0000   0.0000
     0.0000   0.0000   0.0000   0.0000   0.0000   0.0000   0.0000   0.0000
     0.0000   0.0000   0.0000   0.0000

          k = 0.0000 0.4811 0.0357 (  3382 PWs)   bands (ev):

    -1.3040  -1.2673  -0.6135  -0.5645   1.9775   2.0315   3.2991   3.4162
     3.7248   3.8575   4.8042   4.8076   6.4532   6.5829   6.7389   6.8353
     7.7119   7.7185   9.4562   9.7380  10.0132  10.0593  11.3997  12.1082
    12.3487  12.6658  13.2537  13.4643

     occupation numbers 
     1.0000   1.0000   1.0000   1.0000   1.0000   1.0000   1.0000   1.0000
     1.0000   1.0000   1.0000   1.0000   1.0000   1.0000   0.0000   0.0000
     0.0000   0.0000   0.0000   0.0000   0.0000   0.0000   0.0000   0.0000
     0.0000   0.0000   0.0000   0.0000

          k = 0.0000 0.4811 0.0536 (  3390 PWs)   bands (ev):

    -1.3008  -1.2709  -0.6088  -0.5687   1.9824   2.0265   3.3070   3.4009
     3.7419   3.8484   4.8045   4.8072   6.4630   6.5674   6.7502   6.8271
     7.7125   7.7179   9.4806   9.7099  10.0173  10.0549  11.4564  12.0238
    12.3882  12.6395  13.2721  13.4444

     occupation numbers 
     1.0000   1.0000   1.0000   1.0000   1.0000   1.0000   1.0000   1.0000
     1.0000   1.0000   1.0000   1.0000   1.0000   1.0000   0.0000   0.0000
     0.0000   0.0000   0.0000   0.0000   0.0000   0.0000   0.0000   0.0000
     0.0000   0.0000   0.0000   0.0000

          k = 0.0000 0.4811 0.0715 (  3390 PWs)   bands (ev):

    -1.2967  -1.2755  -0.6028  -0.5744   1.9888   2.0199   3.3179   3.3832
     3.7618   3.8360   4.8048   4.8068   6.4762   6.5492   6.7633   6.8166
     7.7133   7.7171   9.5127   9.6743  10.0227  10.0492  11.5315  11.9272
    12.4300  12.6050  13.2724  13.4182

     occupation numbers 
     1.0000   1.0000   1.0000   1.0000   1.0000   1.0000   1.0000   1.0000
     1.0000   1.0000   1.0000   1.0000   1.0000   1.0000   0.0000   0.0000
     0.0000   0.0000   0.0000   0.0000   0.0000   0.0000   0.0000   0.0000
     0.0000   0.0000   0.0000   0.0000

          k = 0.0000 0.4811 0.0893 (  3373 PWs)   bands (ev):

    -1.2916  -1.2807  -0.5957  -0.5810   1.9962   2.0124   3.3316   3.3649
     3.7825   3.8205   4.8054   4.8064   6.4923   6.5298   6.7772   6.8044
     7.7143   7.7162   9.5505   9.6340  10.0290  10.0428  11.6209  11.8241
    12.4740  12.5637  13.2938  13.3282

     occupation numbers 
     1.0000   1.0000   1.0000   1.0000   1.0000   1.0000   1.0000   1.0000
     1.0000   1.0000   1.0000   1.0000   1.0000   1.0000   0.0000   0.0000
     0.0000   0.0000   0.0000   0.0000   0.0000   0.0000   0.0000   0.0000
     0.0000   0.0000   0.0000   0.0000

          k = 0.0000 0.4811-0.1072 (  3372 PWs)   bands (ev):

    -1.2863  -1.2863  -0.5883  -0.5883   2.0043   2.0043   3.3475   3.3475
     3.8024   3.8024   4.8059   4.8059   6.5104   6.5104   6.7911   6.7911
     7.7152   7.7152   9.5918   9.5918  10.0358  10.0358  11.7202  11.7202
    12.5193  12.5193  13.3563  13.3565

     occupation numbers 
     1.0000   1.0000   1.0000   1.0000   1.0000   1.0000   1.0000   1.0000
     1.0000   1.0000   1.0000   1.0000   1.0000   1.0000   0.0000   0.0000
     0.0000   0.0000   0.0000   0.0000   0.0000   0.0000   0.0000   0.0000
     0.0000   0.0000   0.0000   0.0000

          k = 0.0000-0.5774 0.0000 (  3376 PWs)   bands (ev):

    -0.8996  -0.8743  -0.4080  -0.3952   1.7482   1.8130   3.1289   3.2419
     3.5060   3.6543   4.7359   4.7399   6.4896   6.6310   6.8267   6.8878
     8.1910   8.2026   9.6272   9.6657   9.6704   9.8592  11.4726  11.6371
    11.8057  12.1149  13.2131  13.4687

     occupation numbers 
     1.0000   1.0000   1.0000   1.0000   1.0000   1.0000   1.0000   1.0000
     1.0000   1.0000   1.0000   1.0000   1.0000   1.0000   0.0000   0.0000
     0.0000   0.0000   0.0000   0.0000   0.0000   0.0000   0.0000   0.0000
     0.0000   0.0000   0.0000   0.0000

          k = 0.0000-0.5774 0.0179 (  3376 PWs)   bands (ev):

    -0.8991  -0.8746  -0.4079  -0.3955   1.7493   1.8118   3.1301   3.2386
     3.5101   3.6526   4.7360   4.7399   6.4910   6.6273   6.8284   6.8877
     8.1912   8.2024   9.6279   9.6694   9.6697   9.8563  11.4758  11.6345
    11.8099  12.1092  13.2168  13.4640

     occupation numbers 
     1.0000   1.0000   1.0000   1.0000   1.0000   1.0000   1.0000   1.0000
     1.0000   1.0000   1.0000   1.0000   1.0000   1.0000   0.0000   0.0000
     0.0000   0.0000   0.0000   0.0000   0.0000   0.0000   0.0000   0.0000
     0.0000   0.0000   0.0000   0.0000

          k = 0.0000-0.5774 0.0357 (  3366 PWs)   bands (ev):

    -0.8979  -0.8759  -0.4071  -0.3961   1.7525   1.8086   3.1337   3.2294
     3.5213   3.6475   4.7362   4.7398   6.4956   6.6171   6.8334   6.8872
     8.1918   8.2019   9.6300   9.6675   9.6801   9.8475  11.4852  11.6269
    11.8225  12.0925  13.2288  13.4503

     occupation numbers 
     1.0000   1.0000   1.0000   1.0000   1.0000   1.0000   1.0000   1.0000
     1.0000   1.0000   1.0000   1.0000   1.0000   1.0000   0.0000   0.0000
     0.0000   0.0000   0.0000   0.0000   0.0000   0.0000   0.0000   0.0000
     0.0000   0.0000   0.0000   0.0000

          k = 0.0000-0.5774 0.0536 (  3368 PWs)   bands (ev):

    -0.8959  -0.8779  -0.4061  -0.3971   1.7576   1.8033   3.1398   3.2162
     3.5376   3.6390   4.7365   4.7394   6.5033   6.6018   6.8408   6.8855
     8.1928   8.2010   9.6334   9.6640   9.6967   9.8334  11.4997  11.6148
    12.0655  13.2478  13.4285  13.4451

     occupation numbers 
     1.0000   1.0000   1.0000   1.0000   1.0000   1.0000   1.0000   1.0000
     1.0000   1.0000   1.0000   1.0000   1.0000   1.0000   0.0000   0.0000
     0.0000   0.0000   0.0000   0.0000   0.0000   0.0000   0.0000   0.0000
     0.0000   0.0000   0.0000   0.0000

          k = 0.0000-0.5774 0.0715 (  3368 PWs)   bands (ev):

    -0.8934  -0.8806  -0.4047  -0.3984   1.7642   1.7966   3.1483   3.2012
     3.5566   3.6272   4.7369   4.7390   6.5143   6.5835   6.8500   6.8820
[...]
     0.0000   0.0000   0.0000   0.0000   0.0000   0.0000   0.0000   0.0000
     0.0000   0.0000   0.0000   0.0000

          k = 0.1667 0.5774 0.0179 (  3365 PWs)   bands (ev):

    -0.6801  -0.6604  -0.1736  -0.1610   2.1010   2.1527   2.7530   2.7711
     3.6519   3.7625   4.7713   4.8989   6.0876   6.1217   6.6175   6.7852
     7.5038   7.6015   9.3389   9.4431  10.0191  10.3269  10.4297  10.8334
    11.9611  12.2305  12.4055  13.2268

     occupation numbers 
     1.0000   1.0000   1.0000   1.0000   1.0000   1.0000   1.0000   1.0000
     1.0000   1.0000   1.0000   1.0000   1.0000   1.0000   0.0000   0.0000
     0.0000   0.0000   0.0000   0.0000   0.0000   0.0000   0.0000   0.0000
     0.0000   0.0000   0.0000   0.0000

          k = 0.1667 0.5774 0.0357 (  3368 PWs)   bands (ev):

    -0.6791  -0.6615  -0.1729  -0.1616   2.1037   2.1500   2.7537   2.7699
     3.6575   3.7565   4.7781   4.8924   6.0919   6.1221   6.6222   6.7725
     7.5101   7.5973   9.3452   9.4392  10.0315  10.2922  10.4702  10.8162
    11.9586  12.1583  12.5000  13.1936

     occupation numbers 
     1.0000   1.0000   1.0000   1.0000   1.0000   1.0000   1.0000   1.0000
     1.0000   1.0000   1.0000   1.0000   1.0000   1.0000   0.0000   0.0000
     0.0000   0.0000   0.0000   0.0000   0.0000   0.0000   0.0000   0.0000
     0.0000   0.0000   0.0000   0.0000

          k = 0.1667 0.5774 0.0536 (  3355 PWs)   bands (ev):

    -0.6775  -0.6631  -0.1717  -0.1624   2.1079   2.1458   2.7550   2.7682
     3.6663   3.7470   4.7889   4.8821   6.0981   6.1222   6.6306   6.7532
     7.5196   7.5904   9.3551   9.4324  10.0515  10.2555  10.5159  10.7888
    11.9567  12.0963  12.5990  13.1406

     occupation numbers 
     1.0000   1.0000   1.0000   1.0000   1.0000   1.0000   1.0000   1.0000
     1.0000   1.0000   1.0000   1.0000   1.0000   1.0000   0.0000   0.0000
     0.0000   0.0000   0.0000   0.0000   0.0000   0.0000   0.0000   0.0000
     0.0000   0.0000   0.0000   0.0000

          k = 0.1667 0.5774 0.0715 (  3361 PWs)   bands (ev):

    -0.6754  -0.6653  -0.1703  -0.1638   2.1134   2.1402   2.7566   2.7660
     3.6778   3.7349   4.8028   4.8686   6.1051   6.1217   6.6431   6.7297
     7.5314   7.5812   9.3676   9.4228  10.0779  10.2182  10.5643  10.7528
    11.9578  12.0458  12.6998  13.0712

     occupation numbers 
     1.0000   1.0000   1.0000   1.0000   1.0000   1.0000   1.0000   1.0000
     1.0000   1.0000   1.0000   1.0000   1.0000   1.0000   0.0000   0.0000
     0.0000   0.0000   0.0000   0.0000   0.0000   0.0000   0.0000   0.0000
     0.0000   0.0000   0.0000   0.0000

          k = 0.1667 0.5774 0.0893 (  3358 PWs)   bands (ev):

    -0.6731  -0.6678  -0.1687  -0.1653   2.1199   2.1337   2.7587   2.7636
     3.6914   3.7209   4.8188   4.8529   6.1115   6.1200   6.6600   6.7049
     7.5444   7.5701   9.3819   9.4106  10.1094  10.1809  10.6140  10.7102
    11.9650  12.0074  12.8002  12.9890

     occupation numbers 
     1.0000   1.0000   1.0000   1.0000   1.0000   1.0000   1.0000   1.0000
     1.0000   1.0000   1.0000   1.0000   1.0000   1.0000   0.0000   0.0000
     0.0000   0.0000   0.0000   0.0000   0.0000   0.0000   0.0000   0.0000
     0.0000   0.0000   0.0000   0.0000

          k = 0.1667 0.5774-0.1072 (  3354 PWs)   bands (ev):

    -0.6704  -0.6704  -0.1670  -0.1670   2.1268   2.1268   2.7611   2.7611
     3.7060   3.7060   4.8359   4.8359   6.1167   6.1167   6.6810   6.6810
     7.5576   7.5576   9.3967   9.3967  10.1442  10.1442  10.6633  10.6633
    11.9808  11.9808  12.8976  12.8976

     occupation numbers 
     1.0000   1.0000   1.0000   1.0000   1.0000   1.0000   1.0000   1.0000
     1.0000   1.0000   1.0000   1.0000   1.0000   1.0000   0.0000   0.0000
     0.0000   0.0000   0.0000   0.0000   0.0000   0.0000   0.0000   0.0000
     0.0000   0.0000   0.0000   0.0000

          k = 0.2500 0.4330 0.0000 (  3388 PWs)   bands (ev):

    -1.0816  -1.0407  -0.3863  -0.3256   2.3428   2.3947   2.9849   2.9979
     4.3132   4.3668   4.5278   4.7934   5.2449   5.3929   7.2625   7.2675
     7.3104   7.3890   9.1716   9.7127   9.7680   9.8088   9.9810  10.3214
    12.3871  13.3054  13.5425  13.8329

     occupation numbers 
     1.0000   1.0000   1.0000   1.0000   1.0000   1.0000   1.0000   1.0000
     1.0000   1.0000   1.0000   1.0000   1.0000   1.0000   0.0000   0.0000
     0.0000   0.0000   0.0000   0.0000   0.0000   0.0000   0.0000   0.0000
     0.0000   0.0000   0.0000   0.0000

          k = 0.2500 0.4330 0.0179 (  3390 PWs)   bands (ev):

    -1.0810  -1.0414  -0.3852  -0.3266   2.3437   2.3938   2.9851   2.9977
     4.3138   4.3652   4.5319   4.7869   5.2502   5.3921   7.2613   7.2660
     7.3117   7.3877   9.1811   9.7076   9.7678   9.8016   9.9881  10.3156
    12.4021  13.3166  13.4917  13.8558

     occupation numbers 
     1.0000   1.0000   1.0000   1.0000   1.0000   1.0000   1.0000   1.0000
     1.0000   1.0000   1.0000   1.0000   1.0000   1.0000   0.0000   0.0000
     0.0000   0.0000   0.0000   0.0000   0.0000   0.0000   0.0000   0.0000
     0.0000   0.0000   0.0000   0.0000

          k = 0.2500 0.4330 0.0357 (  3384 PWs)   bands (ev):

    -1.0791  -1.0435  -0.3820  -0.3295   2.3463   2.3912   2.9858   2.9971
     4.3156   4.3609   4.5435   4.7687   5.2647   5.3893   7.2579   7.2618
     7.3156   7.3839   9.2090   9.6889   9.7673   9.7860  10.0076  10.2985
    12.4461  13.3496  13.3811  13.8681

     occupation numbers 
     1.0000   1.0000   1.0000   1.0000   1.0000   1.0000   1.0000   1.0000
     1.0000   1.0000   1.0000   1.0000   1.0000   1.0000   0.0000   0.0000
     0.0000   0.0000   0.0000   0.0000   0.0000   0.0000   0.0000   0.0000
     0.0000   0.0000   0.0000   0.0000

          k = 0.2500 0.4330 0.0536 (  3373 PWs)   bands (ev):

    -1.0759  -1.0470  -0.3770  -0.3340   2.3504   2.3871   2.9868   2.9960
     4.3187   4.3547   4.5617   4.7421   5.2852   5.3842   7.2533   7.2562
     7.3219   7.3777   9.2533   9.6502   9.7666   9.7733  10.0363  10.2716
    12.5162  13.2500  13.4028  13.8503

     occupation numbers 
     1.0000   1.0000   1.0000   1.0000   1.0000   1.0000   1.0000   1.0000
     1.0000   1.0000   1.0000   1.0000   1.0000   1.0000   0.0000   0.0000
     0.0000   0.0000   0.0000   0.0000   0.0000   0.0000   0.0000   0.0000
     0.0000   0.0000   0.0000   0.0000

          k = 0.2500 0.4330 0.0715 (  3374 PWs)   bands (ev):

    -1.0719  -1.0514  -0.3706  -0.3401   2.3558   2.3817   2.9881   2.9947
     4.3228   4.3478   4.5852   4.7106   5.3078   5.3761   7.2487   7.2506
     7.3301   7.3697   9.3110   9.5931   9.7656   9.7670  10.0717  10.2369
    12.6086  13.1126  13.4732  13.8032

     occupation numbers 
     1.0000   1.0000   1.0000   1.0000   1.0000   1.0000   1.0000   1.0000
     1.0000   1.0000   1.0000   1.0000   1.0000   1.0000   0.0000   0.0000
     0.0000   0.0000   0.0000   0.0000   0.0000   0.0000   0.0000   0.0000
     0.0000   0.0000   0.0000   0.0000

          k = 0.2500 0.4330 0.0893 (  3376 PWs)   bands (ev):

    -1.0671  -1.0565  -0.3631  -0.3473   2.3620   2.3754   2.9897   2.9931
     4.3279   4.3406   4.6131   4.6772   5.3296   5.3644   7.2455   7.2464
     7.3397   7.3602   9.3783   9.5245   9.7647   9.7648  10.1118  10.1969
    12.7189  12.9751  13.5563  13.7313

     occupation numbers 
     1.0000   1.0000   1.0000   1.0000   1.0000   1.0000   1.0000   1.0000
     1.0000   1.0000   1.0000   1.0000   1.0000   1.0000   0.0000   0.0000
     0.0000   0.0000   0.0000   0.0000   0.0000   0.0000   0.0000   0.0000
     0.0000   0.0000   0.0000   0.0000

          k = 0.2500 0.4330-0.1072 (  3376 PWs)   bands (ev):

    -1.0619  -1.0619  -0.3551  -0.3551   2.3687   2.3687   2.9914   2.9914
     4.3339   4.3339   4.6441   4.6441   5.3488   5.3488   7.2446   7.2446
     7.3499   7.3499   9.4511   9.4511   9.7643   9.7643  10.1543  10.1543
    12.8425  12.8425  13.6454  13.6454

     occupation numbers 
     1.0000   1.0000   1.0000   1.0000   1.0000   1.0000   1.0000   1.0000
     1.0000   1.0000   1.0000   1.0000   1.0000   1.0000   0.0000   0.0000
     0.0000   0.0000   0.0000   0.0000   0.0000   0.0000   0.0000   0.0000
     0.0000   0.0000   0.0000   0.0000

          k = 0.2500 0.5292 0.0000 (  3352 PWs)   bands (ev):

    -0.5658  -0.5464  -0.0119   0.0129   2.4633   2.4722   2.4786   2.5150
     3.7376   3.7835   4.8787   5.0525   5.4079   5.4775   6.7358   6.8488
     7.2728   7.3907   9.1246   9.2056   9.5335  10.0655  10.3837  10.8247
    12.4025  12.8747  13.0084  13.3061

     occupation numbers 
     1.0000   1.0000   1.0000   1.0000   1.0000   1.0000   1.0000   1.0000
     1.0000   1.0000   1.0000   1.0000   1.0000   1.0000   0.0000   0.0000
     0.0000   0.0000   0.0000   0.0000   0.0000   0.0000   0.0000   0.0000
     0.0000   0.0000   0.0000   0.0000

          k = 0.2500 0.5292 0.0179 (  3354 PWs)   bands (ev):

    -0.5656  -0.5468  -0.0113   0.0124   2.4634   2.4722   2.4791   2.5144
     3.7384   3.7827   4.8803   5.0471   5.4123   5.4784   6.7362   6.8454
     7.2749   7.3887   9.1264   9.2046   9.5408  10.0507  10.3961  10.8191
    12.4009  12.8459  13.0435  13.3228

     occupation numbers 
     1.0000   1.0000   1.0000   1.0000   1.0000   1.0000   1.0000   1.0000
     1.0000   1.0000   1.0000   1.0000   1.0000   1.0000   0.0000   0.0000
     0.0000   0.0000   0.0000   0.0000   0.0000   0.0000   0.0000   0.0000
     0.0000   0.0000   0.0000   0.0000

          k = 0.2500 0.5292 0.0357 (  3357 PWs)   bands (ev):

    -0.5645  -0.5478  -0.0101   0.0111   2.4638   2.4721   2.4807   2.5125
     3.7406   3.7804   4.8854   5.0323   5.4242   5.4807   6.7379   6.8358
     7.2810   7.3828   9.1316   9.2015   9.5623  10.0114  10.4287  10.8025
    12.3997  12.7883  13.1182  13.3712

     occupation numbers 
     1.0000   1.0000   1.0000   1.0000   1.0000   1.0000   1.0000   1.0000
     1.0000   1.0000   1.0000   1.0000   1.0000   1.0000   0.0000   0.0000
     0.0000   0.0000   0.0000   0.0000   0.0000   0.0000   0.0000   0.0000
     0.0000   0.0000   0.0000   0.0000

          k = 0.2500 0.5292 0.0536 (  3366 PWs)   bands (ev):

    -0.5631  -0.5494  -0.0082   0.0091   2.4645   2.4715   2.4834   2.5096
     3.7442   3.7767   4.8939   5.0113   5.4400   5.4833   6.7414   6.8215
     7.2905   7.3733   9.1397   9.1965   9.5969   9.9566  10.4738  10.7748
    12.4059  12.7204  13.2113  13.4448

     occupation numbers 
     1.0000   1.0000   1.0000   1.0000   1.0000   1.0000   1.0000   1.0000
     1.0000   1.0000   1.0000   1.0000   1.0000   1.0000   0.0000   0.0000
     0.0000   0.0000   0.0000   0.0000   0.0000   0.0000   0.0000   0.0000
     0.0000   0.0000   0.0000   0.0000

          k = 0.2500 0.5292 0.0715 (  3371 PWs)   bands (ev):

    -0.5612  -0.5515  -0.0056   0.0066   2.4655   2.4705   2.4872   2.5058
     3.7489   3.7719   4.9061   4.9875   5.4560   5.4849   6.7477   6.8044
     7.3027   7.3612   9.1496   9.1896   9.6431   9.8934  10.5258  10.7366
    12.4259  12.6484  13.3154  13.5266

     occupation numbers 
     1.0000   1.0000   1.0000   1.0000   1.0000   1.0000   1.0000   1.0000
     1.0000   1.0000   1.0000   1.0000   1.0000   1.0000   0.0000   0.0000
     0.0000   0.0000   0.0000   0.0000   0.0000   0.0000   0.0000   0.0000
     0.0000   0.0000   0.0000   0.0000

          k = 0.2500 0.5292 0.0893 (  3368 PWs)   bands (ev):

    -0.5589  -0.5539  -0.0026   0.0037   2.4667   2.4693   2.4917   2.5013
     3.7544   3.7663   4.9220   4.9636   5.4695   5.4839   6.7574   6.7868
     7.3169   7.3471   9.1604   9.1810   9.6985   9.8269  10.5812  10.6898
    12.4622  12.5777  13.4242  13.9044

     occupation numbers 
     1.0000   1.0000   1.0000   1.0000   1.0000   1.0000   1.0000   1.0000
     1.0000   1.0000   1.0000   1.0000   1.0000   1.0000   0.0000   0.0000
     0.0000   0.0000   0.0000   0.0000   0.0000   0.0000   0.0000   0.0000
     0.0000   0.0000   0.0000   0.0000

          k = 0.2500 0.5292-0.1072 (  3364 PWs)   bands (ev):

    -0.5564  -0.5564   0.0005   0.0005   2.4680   2.4680   2.4965   2.4965
     3.7603   3.7603   4.9414   4.9414   5.4789   5.4789   6.7707   6.7707
     7.3320   7.3320   9.1712   9.1712   9.7608   9.7608  10.6369  10.6369
    12.5139  12.5140  13.5232  13.5233

     occupation numbers 
     1.0000   1.0000   1.0000   1.0000   1.0000   1.0000   1.0000   1.0000
     1.0000   1.0000   1.0000   1.0000   1.0000   1.0000   0.0000   0.0000
     0.0000   0.0000   0.0000   0.0000   0.0000   0.0000   0.0000   0.0000
     0.0000   0.0000   0.0000   0.0000

          k = 0.3333 0.5774 0.0000 (  3372 PWs)   bands (ev):

    -0.3818  -0.3817   0.1832   0.1832   2.1929   2.2191   3.0850   3.0850
     3.1197   3.1592   5.1605   5.1605   5.2728   5.2728   6.6285   6.6285
     7.3027   7.4400   8.8803   8.8803   9.2058   9.7812  11.2326  11.2326
    12.2039  12.9052  12.9052  13.2931

     occupation numbers 
     1.0000   1.0000   1.0000   1.0000   1.0000   1.0000   1.0000   1.0000
     1.0000   1.0000   1.0000   1.0000   1.0000   1.0000   0.0000   0.0000
     0.0000   0.0000   0.0000   0.0000   0.0000   0.0000   0.0000   0.0000
     0.0000   0.0000   0.0000   0.0000

          k = 0.3333 0.5774 0.0179 (  3366 PWs)   bands (ev):

    -0.3817  -0.3817   0.1832   0.1832   2.1933   2.2186   3.0850   3.0850
     3.1204   3.1585   5.1516   5.1516   5.2829   5.2829   6.6269   6.6269
     7.3047   7.4372   8.8804   8.8804   9.2146   9.7695  11.2371  11.2371
    12.2219  12.8857  12.8858  13.2713

     occupation numbers 
     1.0000   1.0000   1.0000   1.0000   1.0000   1.0000   1.0000   1.0000
     1.0000   1.0000   1.0000   1.0000   1.0000   1.0000   0.0000   0.0000
     0.0000   0.0000   0.0000   0.0000   0.0000   0.0000   0.0000   0.0000
     0.0000   0.0000   0.0000   0.0000

          k = 0.3333 0.5774 0.0357 (  3366 PWs)   bands (ev):

    -0.3817  -0.3817   0.1832   0.1832   2.1946   2.2173   3.0852   3.0852
     3.1225   3.1566   5.1323   5.1323   5.3053   5.3053   6.6225   6.6225
     7.3106   7.4292   8.8807   8.8807   9.2403   9.7357  11.2498  11.2498
    12.2742  12.8351  12.8351  13.2086

     occupation numbers 
     1.0000   1.0000   1.0000   1.0000   1.0000   1.0000   1.0000   1.0000
     1.0000   1.0000   1.0000   1.0000   1.0000   1.0000   0.0000   0.0000
     0.0000   0.0000   0.0000   0.0000   0.0000   0.0000   0.0000   0.0000
     0.0000   0.0000   0.0000   0.0000

          k = 0.3333 0.5774 0.0536 (  3369 PWs)   bands (ev):

    -0.3817  -0.3817   0.1831   0.1831   2.1966   2.2151   3.0854   3.0854
     3.1256   3.1535   5.1121   5.1121   5.3298   5.3298   6.6164   6.6164
     7.3202   7.4168   8.8810   8.8810   9.2815   9.6838  11.2677  11.2677
    12.3568  12.7716  12.7716  13.1127

     occupation numbers 
     1.0000   1.0000   1.0000   1.0000   1.0000   1.0000   1.0000   1.0000
     1.0000   1.0000   1.0000   1.0000   1.0000   1.0000   0.0000   0.0000
     0.0000   0.0000   0.0000   0.0000   0.0000   0.0000   0.0000   0.0000
     0.0000   0.0000   0.0000   0.0000

          k = 0.3333 0.5774 0.0715 (  3369 PWs)   bands (ev):

    -0.3817  -0.3817   0.1831   0.1831   2.1992   2.2123   3.0857   3.0857
     3.1298   3.1495   5.0956   5.0956   5.3507   5.3507   6.6102   6.6102
     7.3331   7.4012   8.8814   8.8814   9.3359   9.6189  11.2864  11.2864
    12.4635  12.7126  12.7126  12.9934

     occupation numbers 
     1.0000   1.0000   1.0000   1.0000   1.0000   1.0000   1.0000   1.0000
     1.0000   1.0000   1.0000   1.0000   1.0000   1.0000   0.0000   0.0000
     0.0000   0.0000   0.0000   0.0000   0.0000   0.0000   0.0000   0.0000
     0.0000   0.0000   0.0000   0.0000

          k = 0.3333 0.5774 0.0893 (  3369 PWs)   bands (ev):

    -0.3818  -0.3818   0.1832   0.1832   2.2024   2.2092   3.0858   3.0858
     3.1346   3.1448   5.0849   5.0849   5.3645   5.3645   6.6057   6.6057
     7.3486   7.3838   8.8816   8.8816   9.4007   9.5467  11.3005  11.3005
    12.5878  12.6714  12.6714  12.8603

     occupation numbers 
     1.0000   1.0000   1.0000   1.0000   1.0000   1.0000   1.0000   1.0000
     1.0000   1.0000   1.0000   1.0000   1.0000   1.0000   0.0000   0.0000
     0.0000   0.0000   0.0000   0.0000   0.0000   0.0000   0.0000   0.0000
     0.0000   0.0000   0.0000   0.0000

          k = 0.3333 0.5774-0.1072 (  3366 PWs)   bands (ev):

    -0.3818  -0.3818   0.1833   0.1833   2.2057   2.2057   3.0859   3.0859
     3.1397   3.1397   5.0813   5.0813   5.3693   5.3693   6.6040   6.6040
     7.3658   7.3658   8.8817   8.8817   9.4724   9.4724  11.3059  11.3059
    12.6568  12.6568  12.7225  12.7225

     occupation numbers 
     1.0000   1.0000   1.0000   1.0000   1.0000   1.0000   1.0000   1.0000
     1.0000   1.0000   1.0000   1.0000   1.0000   1.0000   0.0000   0.0000
     0.0000   0.0000   0.0000   0.0000   0.0000   0.0000   0.0000   0.0000
     0.0000   0.0000   0.0000   0.0000

     highest occupied, lowest unoccupied level (ev):     6.6310    6.0156

!    total energy              =     -63.43558028 Ry
     estimated scf accuracy    <          3.9E-12 Ry

     The total energy is the sum of the following terms:
     one-electron contribution =     -23.98196566 Ry
     hartree contribution      =      26.32131280 Ry
     xc contribution           =     -17.93987586 Ry
     ewald contribution        =     -47.83505156 Ry

     convergence has been achieved in  17 iterations

     Writing all to output data dir ./MoS2.save/ :
     XML data file, charge density, pseudopotentials, collected wavefunctions

     init_run     :      5.61s CPU      6.20s WALL (       1 calls)
     electrons    :     97.76s CPU    109.29s WALL (       1 calls)

     Called by init_run:
     wfcinit      :      5.34s CPU      5.69s WALL (       1 calls)
     wfcinit:atom :      0.05s CPU      0.05s WALL (     133 calls)
     wfcinit:wfcr :      5.06s CPU      5.39s WALL (     133 calls)
     potinit      :      0.01s CPU      0.01s WALL (       1 calls)
     hinit0       :      0.24s CPU      0.48s WALL (       1 calls)

     Called by electrons:
     c_bands      :     91.99s CPU    103.09s WALL (      17 calls)
     sum_band     :      5.67s CPU      6.09s WALL (      17 calls)
     v_of_rho     :      0.06s CPU      0.07s WALL (      18 calls)
     v_h          :      0.00s CPU      0.00s WALL (      18 calls)
     v_xc         :      0.06s CPU      0.07s WALL (      18 calls)
     mix_rho      :      0.02s CPU      0.03s WALL (      17 calls)

     Called by c_bands:
     init_us_2    :      1.24s CPU      1.36s WALL (    4655 calls)
     ccgdiagg     :     72.20s CPU     81.72s WALL (    2261 calls)
     wfcrot       :     23.87s CPU     25.65s WALL (    2261 calls)

     Called by sum_band:
     sum_band:wei :      0.00s CPU      0.00s WALL (      17 calls)
     sum_band:loo :      5.66s CPU      6.08s WALL (      17 calls)
     sum_band:buf :      0.15s CPU      0.17s WALL (    2261 calls)
     sum_band:ini :      0.74s CPU      0.79s WALL (    2261 calls)

     Called by *cgdiagg:
     h_psi        :     67.48s CPU     75.65s WALL (  180441 calls)

     Called by h_psi:
     h_psi:calbec :     14.49s CPU     16.21s WALL (  180441 calls)
     vloc_psi     :     39.51s CPU     44.53s WALL (  180441 calls)
     add_vuspsi   :     11.29s CPU     12.49s WALL (  180441 calls)
     hs_1psi      :     51.82s CPU     58.62s WALL (  178180 calls)
     s_1psi       :      9.80s CPU     11.03s WALL (  178180 calls)

     General routines
     calbec       :     22.28s CPU     25.12s WALL (  358621 calls)
     fft          :      0.26s CPU      0.50s WALL (     179 calls)
     ffts         :      0.00s CPU      0.00s WALL (      17 calls)
     fftw         :     37.26s CPU     41.72s WALL (  564372 calls)

     Parallel routines

     PWSCF        :   1m43.56s CPU   1m55.97s WALL


   This run was terminated on:  14:40:11   5Nov2024            

=------------------------------------------------------------------------------=
   JOB DONE.
=------------------------------------------------------------------------------=
