
     Program PWSCF v.7.3.1 starts on  4Nov2024 at 22: 0:22 

     This program is part of the open-source Quantum ESPRESSO suite
     for quantum simulation of materials; please cite
         "P. Giannozzi et al., J. Phys.:Condens. Matter 21 395502 (2009);
         "P. Giannozzi et al., J. Phys.:Condens. Matter 29 465901 (2017);
         "P. Giannozzi et al., J. Chem. Phys. 152 154105 (2020);
          URL http://www.quantum-espresso.org", 
     in publications or presentations arising from this work. More details at
     http://www.quantum-espresso.org/quote

     Parallel version (MPI), running on     1 processors

     MPI processes distributed on     1 nodes
     11915 MiB available memory on the printing compute node when the environment starts

     Waiting for input...
     Reading input from standard input

     Current dimensions of program PWSCF are:
     Max number of different atomic species (ntypx) = 10
     Max number of k-points (npk) =  40000
     Max angular momentum in pseudopotentials (lmaxx) =  4

     Subspace diagonalization in iterative solution of the eigenvalue problem:
     a serial algorithm will be used


     G-vector sticks info
     --------------------
     sticks:   dense  smooth     PW     G-vecs:    dense   smooth      PW
     Sum         151     151     55                 1139     1139     283

     Using Slab Decomposition



     bravais-lattice index     =            2
     lattice parameter (alat)  =       7.2000  a.u.
     unit-cell volume          =      93.3120 (a.u.)^3
     number of atoms/cell      =            1
     number of atomic types    =            1
     number of electrons       =        10.00
     number of Kohn-Sham states=           10
     kinetic-energy cutoff     =      20.0000  Ry
     charge density cutoff     =      80.0000  Ry
     scf convergence threshold =      1.0E-08
     mixing beta               =       0.7000
     number of iterations used =            8  plain     mixing
     Exchange-correlation=  SLA  PZ   NOGX NOGC
                           (   1   1   0   0   0   0   0)
     Non magnetic calculation with spin-orbit


     celldm(1)=   7.200000  celldm(2)=   0.000000  celldm(3)=   0.000000
     celldm(4)=   0.000000  celldm(5)=   0.000000  celldm(6)=   0.000000

     crystal axes: (cart. coord. in units of alat)
               a(1) = (  -0.500000   0.000000   0.500000 )  
               a(2) = (   0.000000   0.500000   0.500000 )  
               a(3) = (  -0.500000   0.500000   0.000000 )  

     reciprocal axes: (cart. coord. in units 2 pi/alat)
               b(1) = ( -1.000000 -1.000000  1.000000 )  
               b(2) = (  1.000000  1.000000  1.000000 )  
               b(3) = ( -1.000000  1.000000 -1.000000 )  


     PseudoPot. # 1 for Pt read from file:
     /home/dashlander/Desktop/Sem7/CPD/Assignment_3/pseudo/Pt.rel-pz-n-rrkjus.UPF
     MD5 check sum: 4baafe8ec1942611396c7a5466f52249
     Pseudo is Ultrasoft + core correction, Zval = 10.0
     Generated by new atomic code, or converted to UPF format
     Using radial grid of 1277 points,  6 beta functions with: 
                l(1) =   2
                l(2) =   2
                l(3) =   2
                l(4) =   2
                l(5) =   1
                l(6) =   1
     Q(r) pseudized with 0 coefficients 


     atomic species   valence    mass     pseudopotential
     Pt               10.00   195.08400     Pt( 1.00)

     48 Sym. Ops., with inversion, found



   Cartesian axes

     site n.     atom                  positions (alat units)
         1        Pt     tau(   1) = (   0.0000000   0.0000000   0.0000000  )

     number of k points=    35
                       cart. coord. in units 2pi/alat
        k(    1) = (   0.0000000   0.0000000   0.0000000), wk =   0.0013717
        k(    2) = (  -0.1111111   0.1111111  -0.1111111), wk =   0.0109739
        k(    3) = (  -0.2222222   0.2222222  -0.2222222), wk =   0.0109739
        k(    4) = (  -0.3333333   0.3333333  -0.3333333), wk =   0.0109739
        k(    5) = (  -0.4444444   0.4444444  -0.4444444), wk =   0.0109739
        k(    6) = (   0.0000000   0.2222222   0.0000000), wk =   0.0082305
        k(    7) = (  -0.1111111   0.3333333  -0.1111111), wk =   0.0329218
        k(    8) = (  -0.2222222   0.4444444  -0.2222222), wk =   0.0329218
        k(    9) = (  -0.3333333   0.5555556  -0.3333333), wk =   0.0329218
        k(   10) = (   0.5555556  -0.3333333   0.5555556), wk =   0.0329218
        k(   11) = (   0.4444444  -0.2222222   0.4444444), wk =   0.0329218
        k(   12) = (   0.3333333  -0.1111111   0.3333333), wk =   0.0329218
        k(   13) = (   0.2222222  -0.0000000   0.2222222), wk =   0.0164609
        k(   14) = (   0.0000000   0.4444444   0.0000000), wk =   0.0082305
        k(   15) = (  -0.1111111   0.5555556  -0.1111111), wk =   0.0329218
        k(   16) = (  -0.2222222   0.6666667  -0.2222222), wk =   0.0329218
        k(   17) = (   0.6666667  -0.2222222   0.6666667), wk =   0.0329218
        k(   18) = (   0.5555556  -0.1111111   0.5555556), wk =   0.0329218
        k(   19) = (   0.4444444   0.0000000   0.4444444), wk =   0.0164609
        k(   20) = (   0.0000000   0.6666667   0.0000000), wk =   0.0082305
        k(   21) = (  -0.1111111   0.7777778  -0.1111111), wk =   0.0329218
        k(   22) = (   0.7777778  -0.1111111   0.7777778), wk =   0.0329218
        k(   23) = (   0.6666667  -0.0000000   0.6666667), wk =   0.0164609
        k(   24) = (   0.0000000   0.8888889   0.0000000), wk =   0.0082305
        k(   25) = (   0.8888889   0.0000000   0.8888889), wk =   0.0164609
        k(   26) = (  -0.2222222   0.4444444   0.0000000), wk =   0.0329218
        k(   27) = (  -0.3333333   0.5555556  -0.1111111), wk =   0.0658436
        k(   28) = (   0.5555556  -0.3333333   0.7777778), wk =   0.0658436
        k(   29) = (  -0.2222222   0.6666667   0.0000000), wk =   0.0329218
        k(   30) = (   0.6666667  -0.2222222   0.8888889), wk =   0.0658436
        k(   31) = (   0.5555556  -0.1111111   0.7777778), wk =   0.0658436
        k(   32) = (   0.4444444   0.0000000   0.6666667), wk =   0.0329218
        k(   33) = (   0.7777778  -0.1111111   1.0000000), wk =   0.0329218
        k(   34) = (   0.6666667  -0.0000000   0.8888889), wk =   0.0329218
        k(   35) = (   0.5555556  -0.1111111   1.0000000), wk =   0.0329218

     Dense  grid:     1139 G-vectors     FFT dimensions: (  15,  15,  15)

     Estimated max dynamical RAM per process >      11.13 MB

     Check: negative core charge=   -0.000035

     Initial potential from superposition of free atoms

     starting charge       9.9999, renormalised to      10.0000

     negative rho (up, down):  1.080E-04 0.000E+00
     Starting wfcs are   12 randomized atomic wfcs

     total cpu time spent up to now is        0.4 secs

     Self-consistent Calculation

     iteration #  1     ecut=    20.00 Ry     beta= 0.70
     Davidson diagonalization with overlap
     ethr =  1.00E-02,  avg # of iterations =  2.3

     Threshold (ethr) on eigenvalues was too large:
     Diagonalizing with lowered threshold

     Davidson diagonalization with overlap
     ethr =  1.17E-05,  avg # of iterations =  7.9

     negative rho (up, down):  2.043E-04 0.000E+00

     total cpu time spent up to now is        0.9 secs

     total energy              =     -69.44253620 Ry
     estimated scf accuracy    <       0.00449322 Ry

     iteration #  2     ecut=    20.00 Ry     beta= 0.70
     Davidson diagonalization with overlap
     ethr =  4.49E-05,  avg # of iterations =  2.1

     negative rho (up, down):  2.313E-04 0.000E+00

     total cpu time spent up to now is        1.1 secs

     total energy              =     -69.44369678 Ry
     estimated scf accuracy    <       0.00042881 Ry

     iteration #  3     ecut=    20.00 Ry     beta= 0.70
     Davidson diagonalization with overlap
     ethr =  4.29E-06,  avg # of iterations =  2.1

     negative rho (up, down):  2.503E-04 0.000E+00

     total cpu time spent up to now is        1.3 secs

     total energy              =     -69.44376403 Ry
     estimated scf accuracy    <       0.00001359 Ry

     iteration #  4     ecut=    20.00 Ry     beta= 0.70
     Davidson diagonalization with overlap
     ethr =  1.36E-07,  avg # of iterations =  5.9

     negative rho (up, down):  2.504E-04 0.000E+00

     total cpu time spent up to now is        1.6 secs

     total energy              =     -69.44377985 Ry
     estimated scf accuracy    <       0.00000205 Ry

     iteration #  5     ecut=    20.00 Ry     beta= 0.70
     Davidson diagonalization with overlap
     ethr =  2.05E-08,  avg # of iterations =  3.4

     negative rho (up, down):  2.512E-04 0.000E+00

     total cpu time spent up to now is        1.8 secs

     total energy              =     -69.44378001 Ry
     estimated scf accuracy    <       0.00000032 Ry

     iteration #  6     ecut=    20.00 Ry     beta= 0.70
     Davidson diagonalization with overlap
     ethr =  3.17E-09,  avg # of iterations =  3.6

     negative rho (up, down):  2.513E-04 0.000E+00

     total cpu time spent up to now is        2.0 secs

     total energy              =     -69.44378017 Ry
     estimated scf accuracy    <       0.00000002 Ry

     iteration #  7     ecut=    20.00 Ry     beta= 0.70
     Davidson diagonalization with overlap
     ethr =  2.36E-10,  avg # of iterations =  4.1

     negative rho (up, down):  2.512E-04 0.000E+00

     total cpu time spent up to now is        2.2 secs

     End of self-consistent calculation

          k = 0.0000 0.0000 0.0000 (   137 PWs)   bands (ev):

     8.6445   8.6445  15.2191  15.2191  15.2191  15.2191  16.1950  16.1950
    18.2875  18.2875

          k =-0.1111 0.1111-0.1111 (   147 PWs)   bands (ev):

     9.1686   9.1686  15.1456  15.1456  15.3492  15.3492  16.3246  16.3246
    18.1001  18.1001

          k =-0.2222 0.2222-0.2222 (   150 PWs)   bands (ev):

    10.4835  10.4835  15.0131  15.0131  15.4556  15.4556  16.6386  16.6386
    18.0192  18.0192

          k =-0.3333 0.3333-0.3333 (   144 PWs)   bands (ev):

    11.5135  11.5135  15.2570  15.2570  16.0065  16.0065  16.3716  16.3716
    18.8930  18.8930

          k =-0.4444 0.4444-0.4444 (   147 PWs)   bands (ev):

    11.6607  11.6607  15.0349  15.0349  16.0410  16.0410  18.3377  18.3377
    19.7187  19.7187

          k = 0.0000 0.2222 0.0000 (   145 PWs)   bands (ev):

     9.3467   9.3467  14.9492  14.9492  15.5328  15.5328  16.4243  16.4243
    17.8233  17.8233

          k =-0.1111 0.3333-0.1111 (   143 PWs)   bands (ev):

    10.4363  10.4363  14.6089  14.6089  15.6994  15.6994  16.8276  16.8276
    17.6387  17.6387

          k =-0.2222 0.4444-0.2222 (   143 PWs)   bands (ev):

    11.7147  11.7147  14.8249  14.8249  15.4040  15.4040  16.6614  16.6614
    18.7173  18.7173

          k =-0.3333 0.5556-0.3333 (   142 PWs)   bands (ev):

    12.0680  12.0680  15.0032  15.0032  16.0806  16.0806  16.6304  16.6304
    20.0116  20.0116

          k = 0.5556-0.3333 0.5556 (   142 PWs)   bands (ev):

    12.0809  12.0809  14.9153  14.9153  16.0695  16.0695  17.3876  17.3876
    19.9294  19.9294

          k = 0.4444-0.2222 0.4444 (   146 PWs)   bands (ev):

    12.0799  12.0799  15.1174  15.1174  16.0049  16.0049  16.3487  16.3487
    18.9181  18.9181

          k = 0.3333-0.1111 0.3333 (   145 PWs)   bands (ev):

    11.3837  11.3837  14.7434  14.7434  15.5290  15.5290  16.7461  16.7461
    17.7657  17.7657

          k = 0.2222-0.0000 0.2222 (   145 PWs)   bands (ev):

     9.9873   9.9873  14.8710  14.8710  15.5556  15.5556  16.6220  16.6220
    17.6855  17.6855

          k = 0.0000 0.4444 0.0000 (   141 PWs)   bands (ev):

    11.1212  11.1212  14.0256  14.0256  16.0237  16.0237  17.4620  17.4620
    17.4629  17.4629

          k =-0.1111 0.5556-0.1111 (   141 PWs)   bands (ev):

    12.1465  12.1465  13.6844  13.6844  15.7845  15.7845  17.6511  17.6511
    18.7408  18.7408

          k =-0.2222 0.6667-0.2222 (   141 PWs)   bands (ev):

    12.6749  12.6749  14.0982  14.0982  15.5265  15.5265  17.3888  17.3888
    20.1568  20.1568

          k = 0.6667-0.2222 0.6667 (   138 PWs)   bands (ev):

    12.8905  12.8905  14.3732  14.3732  15.8636  15.8636  17.1077  17.1077
    20.0147  20.0147

          k = 0.5556-0.1111 0.5556 (   136 PWs)   bands (ev):

    13.1835  13.1835  14.5938  14.5938  15.4419  15.4419  16.9191  16.9191
    18.9530  18.9530

          k = 0.4444 0.0000 0.4444 (   144 PWs)   bands (ev):

    12.8052  12.8052  14.4534  14.4534  15.2096  15.2096  16.9727  16.9727
    17.8336  17.8336

          k = 0.0000 0.6667 0.0000 (   141 PWs)   bands (ev):

    12.1878  12.1878  13.0377  13.0377  17.1755  17.1755  18.8265  18.8265
    18.9309  18.9309

          k =-0.1111 0.7778-0.1111 (   135 PWs)   bands (ev):

    12.3161  12.3161  12.9123  12.9123  17.3746  17.3746  18.9364  18.9364
    20.2400  20.2400

          k = 0.7778-0.1111 0.7778 (   140 PWs)   bands (ev):

    12.6400  12.6400  13.4556  13.4556  16.6840  16.6840  18.4685  18.4685
    20.2469  20.2469

          k = 0.6667-0.0000 0.6667 (   142 PWs)   bands (ev):

    13.2110  13.2110  14.2393  14.2393  15.6386  15.6386  17.7993  17.7993
    19.4597  19.4597

          k = 0.0000 0.8889 0.0000 (   142 PWs)   bands (ev):

    11.8848  11.8848  12.4506  12.4506  19.7473  19.7473  19.8686  19.8686
    20.7520  20.7520

          k = 0.8889 0.0000 0.8889 (   138 PWs)   bands (ev):

    12.0582  12.0582  12.6195  12.6195  18.6567  18.6567  19.5765  19.5765
    20.6878  20.6878

          k =-0.2222 0.4444 0.0000 (   143 PWs)   bands (ev):

    11.6301  11.6301  14.2088  14.2088  15.5702  15.5702  17.3338  17.3338
    17.6161  17.6161

          k =-0.3333 0.5556-0.1111 (   143 PWs)   bands (ev):

    12.7000  12.7000  14.5038  14.5038  15.0361  15.0361  17.1294  17.1294
    18.7553  18.7553

          k = 0.5556-0.3333 0.7778 (   140 PWs)   bands (ev):

    12.8092  12.8092  14.5282  14.5282  15.8110  15.8110  16.8928  16.8928
    19.7833  19.7833

          k =-0.2222 0.6667 0.0000 (   139 PWs)   bands (ev):

    12.7539  12.7539  13.4029  13.4029  15.7679  15.7679  18.6302  18.6302
    18.9422  18.9422

          k = 0.6667-0.2222 0.8889 (   141 PWs)   bands (ev):

    13.0897  13.0897  13.7897  13.7897  15.5218  15.5218  18.1694  18.1694
    19.9589  19.9589

          k = 0.5556-0.1111 0.7778 (   139 PWs)   bands (ev):

    13.5059  13.5059  14.0756  14.0756  15.3116  15.3116  17.6694  17.6694
    19.8486  19.8486

          k = 0.4444 0.0000 0.6667 (   138 PWs)   bands (ev):

    13.9126  13.9126  14.2391  14.2391  14.4729  14.4729  17.6864  17.6864
    19.0019  19.0019

          k = 0.7778-0.1111 1.0000 (   137 PWs)   bands (ev):

    12.4083  12.4083  12.9052  12.9052  17.3669  17.3669  19.2631  19.2631
    20.4830  20.4830

          k = 0.6667-0.0000 0.8889 (   140 PWs)   bands (ev):

    12.8739  12.8739  13.5384  13.5384  16.3134  16.3134  18.4166  18.4166
    20.4497  20.4497

          k = 0.5556-0.1111 1.0000 (   143 PWs)   bands (ev):

    13.3990  13.3990  14.2196  14.2196  15.0164  15.0164  17.9556  17.9556
    20.4208  20.4208

     highest occupied level (ev):    20.7520

!    total energy              =     -69.44378018 Ry
     estimated scf accuracy    <          6.5E-09 Ry

     The total energy is the sum of the following terms:
     one-electron contribution =      19.60011217 Ry
     hartree contribution      =       3.30367889 Ry
     xc contribution           =     -28.66893129 Ry
     ewald contribution        =     -63.67863995 Ry

     convergence has been achieved in   7 iterations

     negative rho (up, down):  2.512E-04 0.000E+00

     Forces acting on atoms (cartesian axes, Ry/au):

     atom    1 type  1   force =     0.00000000    0.00000000    0.00000000

     Total force =     0.000000     Total SCF correction =     0.000000


     Computing stress (Cartesian axis) and pressure


     negative rho (up, down):  2.512E-04 0.000E+00
          total   stress  (Ry/bohr**3)                   (kbar)     P=      410.38
   0.00278972   0.00000000  -0.00000000          410.38        0.00       -0.00
   0.00000000   0.00278972   0.00000000            0.00      410.38        0.00
  -0.00000000   0.00000000   0.00278972           -0.00        0.00      410.38


     Writing all to output data dir ./platinum.save/ :
     XML data file, charge density, pseudopotentials, collected wavefunctions

     init_run     :      0.23s CPU      0.27s WALL (       1 calls)
     electrons    :      1.56s CPU      1.83s WALL (       1 calls)
     forces       :      0.03s CPU      0.03s WALL (       1 calls)
     stress       :      0.14s CPU      0.14s WALL (       1 calls)

     Called by init_run:
     wfcinit      :      0.05s CPU      0.07s WALL (       1 calls)
     potinit      :      0.01s CPU      0.01s WALL (       1 calls)
     hinit0       :      0.16s CPU      0.17s WALL (       1 calls)

     Called by electrons:
     c_bands      :      1.22s CPU      1.46s WALL (       8 calls)
     sum_band     :      0.26s CPU      0.29s WALL (       8 calls)
     v_of_rho     :      0.00s CPU      0.00s WALL (       8 calls)
     newd         :      0.08s CPU      0.08s WALL (       8 calls)
     mix_rho      :      0.00s CPU      0.00s WALL (       8 calls)

     Called by c_bands:
     init_us_2    :      0.02s CPU      0.02s WALL (     665 calls)
     cegterg      :      1.15s CPU      1.38s WALL (     280 calls)

     Called by *egterg:
     cdiaghg      :      0.08s CPU      0.09s WALL (    1346 calls)
     h_psi        :      0.69s CPU      0.85s WALL (    1416 calls)
     s_psi        :      0.10s CPU      0.12s WALL (    1416 calls)
     g_psi        :      0.01s CPU      0.01s WALL (    1101 calls)

     Called by h_psi:
     h_psi:calbec :      0.08s CPU      0.10s WALL (    1416 calls)
     vloc_psi     :      0.49s CPU      0.60s WALL (    1416 calls)
     add_vuspsi   :      0.10s CPU      0.12s WALL (    1416 calls)

     General routines
     calbec       :      0.12s CPU      0.13s WALL (    1871 calls)
     fft          :      0.02s CPU      0.03s WALL (      89 calls)
     ffts         :      0.00s CPU      0.00s WALL (      32 calls)
     fftw         :      0.37s CPU      0.45s WALL (   46772 calls)

     Parallel routines

     PWSCF        :      2.07s CPU      2.38s WALL


   This run was terminated on:  22: 0:24   4Nov2024            

=------------------------------------------------------------------------------=
   JOB DONE.
=------------------------------------------------------------------------------=
