
     Program PWSCF v.7.3.1 starts on  4Nov2024 at 22: 1:12 

     This program is part of the open-source Quantum ESPRESSO suite
     for quantum simulation of materials; please cite
         "P. Giannozzi et al., J. Phys.:Condens. Matter 21 395502 (2009);
         "P. Giannozzi et al., J. Phys.:Condens. Matter 29 465901 (2017);
         "P. Giannozzi et al., J. Chem. Phys. 152 154105 (2020);
          URL http://www.quantum-espresso.org", 
     in publications or presentations arising from this work. More details at
     http://www.quantum-espresso.org/quote

     Parallel version (MPI), running on     1 processors

     MPI processes distributed on     1 nodes
     11836 MiB available memory on the printing compute node when the environment starts

     Waiting for input...
     Reading input from standard input

     Current dimensions of program PWSCF are:
     Max number of different atomic species (ntypx) = 10
     Max number of k-points (npk) =  40000
     Max angular momentum in pseudopotentials (lmaxx) =  4

     Subspace diagonalization in iterative solution of the eigenvalue problem:
     a serial algorithm will be used


     G-vector sticks info
     --------------------
     sticks:   dense  smooth     PW     G-vecs:    dense   smooth      PW
     Sum         151     151     61                 1243     1243     307

     Using Slab Decomposition



     bravais-lattice index     =            2
     lattice parameter (alat)  =       7.4600  a.u.
     unit-cell volume          =     103.7902 (a.u.)^3
     number of atoms/cell      =            1
     number of atomic types    =            1
     number of electrons       =        10.00
     number of Kohn-Sham states=           10
     kinetic-energy cutoff     =      20.0000  Ry
     charge density cutoff     =      80.0000  Ry
     scf convergence threshold =      1.0E-08
     mixing beta               =       0.7000
     number of iterations used =            8  plain     mixing
     Exchange-correlation=  SLA  PZ   NOGX NOGC
                           (   1   1   0   0   0   0   0)
     Non magnetic calculation with spin-orbit


     celldm(1)=   7.460000  celldm(2)=   0.000000  celldm(3)=   0.000000
     celldm(4)=   0.000000  celldm(5)=   0.000000  celldm(6)=   0.000000

     crystal axes: (cart. coord. in units of alat)
               a(1) = (  -0.500000   0.000000   0.500000 )  
               a(2) = (   0.000000   0.500000   0.500000 )  
               a(3) = (  -0.500000   0.500000   0.000000 )  

     reciprocal axes: (cart. coord. in units 2 pi/alat)
               b(1) = ( -1.000000 -1.000000  1.000000 )  
               b(2) = (  1.000000  1.000000  1.000000 )  
               b(3) = ( -1.000000  1.000000 -1.000000 )  


     PseudoPot. # 1 for Pt read from file:
     /home/dashlander/Desktop/Sem7/CPD/Assignment_3/pseudo/Pt.rel-pz-n-rrkjus.UPF
     MD5 check sum: 4baafe8ec1942611396c7a5466f52249
     Pseudo is Ultrasoft + core correction, Zval = 10.0
     Generated by new atomic code, or converted to UPF format
     Using radial grid of 1277 points,  6 beta functions with: 
                l(1) =   2
                l(2) =   2
                l(3) =   2
                l(4) =   2
                l(5) =   1
                l(6) =   1
     Q(r) pseudized with 0 coefficients 


     atomic species   valence    mass     pseudopotential
     Pt               10.00   195.08400     Pt( 1.00)

     48 Sym. Ops., with inversion, found



   Cartesian axes

     site n.     atom                  positions (alat units)
         1        Pt     tau(   1) = (   0.0000000   0.0000000   0.0000000  )

     number of k points=    35
                       cart. coord. in units 2pi/alat
        k(    1) = (   0.0000000   0.0000000   0.0000000), wk =   0.0013717
        k(    2) = (  -0.1111111   0.1111111  -0.1111111), wk =   0.0109739
        k(    3) = (  -0.2222222   0.2222222  -0.2222222), wk =   0.0109739
        k(    4) = (  -0.3333333   0.3333333  -0.3333333), wk =   0.0109739
        k(    5) = (  -0.4444444   0.4444444  -0.4444444), wk =   0.0109739
        k(    6) = (   0.0000000   0.2222222   0.0000000), wk =   0.0082305
        k(    7) = (  -0.1111111   0.3333333  -0.1111111), wk =   0.0329218
        k(    8) = (  -0.2222222   0.4444444  -0.2222222), wk =   0.0329218
        k(    9) = (  -0.3333333   0.5555556  -0.3333333), wk =   0.0329218
        k(   10) = (   0.5555556  -0.3333333   0.5555556), wk =   0.0329218
        k(   11) = (   0.4444444  -0.2222222   0.4444444), wk =   0.0329218
        k(   12) = (   0.3333333  -0.1111111   0.3333333), wk =   0.0329218
        k(   13) = (   0.2222222  -0.0000000   0.2222222), wk =   0.0164609
        k(   14) = (   0.0000000   0.4444444   0.0000000), wk =   0.0082305
        k(   15) = (  -0.1111111   0.5555556  -0.1111111), wk =   0.0329218
        k(   16) = (  -0.2222222   0.6666667  -0.2222222), wk =   0.0329218
        k(   17) = (   0.6666667  -0.2222222   0.6666667), wk =   0.0329218
        k(   18) = (   0.5555556  -0.1111111   0.5555556), wk =   0.0329218
        k(   19) = (   0.4444444   0.0000000   0.4444444), wk =   0.0164609
        k(   20) = (   0.0000000   0.6666667   0.0000000), wk =   0.0082305
        k(   21) = (  -0.1111111   0.7777778  -0.1111111), wk =   0.0329218
        k(   22) = (   0.7777778  -0.1111111   0.7777778), wk =   0.0329218
        k(   23) = (   0.6666667  -0.0000000   0.6666667), wk =   0.0164609
        k(   24) = (   0.0000000   0.8888889   0.0000000), wk =   0.0082305
        k(   25) = (   0.8888889   0.0000000   0.8888889), wk =   0.0164609
        k(   26) = (  -0.2222222   0.4444444   0.0000000), wk =   0.0329218
        k(   27) = (  -0.3333333   0.5555556  -0.1111111), wk =   0.0658436
        k(   28) = (   0.5555556  -0.3333333   0.7777778), wk =   0.0658436
        k(   29) = (  -0.2222222   0.6666667   0.0000000), wk =   0.0329218
        k(   30) = (   0.6666667  -0.2222222   0.8888889), wk =   0.0658436
        k(   31) = (   0.5555556  -0.1111111   0.7777778), wk =   0.0658436
        k(   32) = (   0.4444444   0.0000000   0.6666667), wk =   0.0329218
        k(   33) = (   0.7777778  -0.1111111   1.0000000), wk =   0.0329218
        k(   34) = (   0.6666667  -0.0000000   0.8888889), wk =   0.0329218
        k(   35) = (   0.5555556  -0.1111111   1.0000000), wk =   0.0329218

     Dense  grid:     1243 G-vectors     FFT dimensions: (  15,  15,  15)

     Estimated max dynamical RAM per process >      12.06 MB

     Check: negative core charge=   -0.000050

     Initial potential from superposition of free atoms

     starting charge       9.9999, renormalised to      10.0000

     negative rho (up, down):  1.699E-04 0.000E+00
     Starting wfcs are   12 randomized atomic wfcs

     total cpu time spent up to now is        0.4 secs

     Self-consistent Calculation

     iteration #  1     ecut=    20.00 Ry     beta= 0.70
     Davidson diagonalization with overlap
     ethr =  1.00E-02,  avg # of iterations =  2.1

     Threshold (ethr) on eigenvalues was too large:
     Diagonalizing with lowered threshold

     Davidson diagonalization with overlap
     ethr =  2.07E-05,  avg # of iterations =  7.7

     negative rho (up, down):  2.559E-04 0.000E+00

     total cpu time spent up to now is        0.9 secs

     total energy              =     -69.45658837 Ry
     estimated scf accuracy    <       0.00406236 Ry

     iteration #  2     ecut=    20.00 Ry     beta= 0.70
     Davidson diagonalization with overlap
     ethr =  4.06E-05,  avg # of iterations =  2.1

     negative rho (up, down):  2.803E-04 0.000E+00

     total cpu time spent up to now is        1.1 secs

     total energy              =     -69.45766712 Ry
     estimated scf accuracy    <       0.00049504 Ry

     iteration #  3     ecut=    20.00 Ry     beta= 0.70
     Davidson diagonalization with overlap
     ethr =  4.95E-06,  avg # of iterations =  2.0

     negative rho (up, down):  2.986E-04 0.000E+00

     total cpu time spent up to now is        1.3 secs

     total energy              =     -69.45774541 Ry
     estimated scf accuracy    <       0.00001512 Ry

     iteration #  4     ecut=    20.00 Ry     beta= 0.70
     Davidson diagonalization with overlap
     ethr =  1.51E-07,  avg # of iterations =  6.8

     negative rho (up, down):  2.987E-04 0.000E+00

     total cpu time spent up to now is        1.6 secs

     total energy              =     -69.45776600 Ry
     estimated scf accuracy    <       0.00000337 Ry

     iteration #  5     ecut=    20.00 Ry     beta= 0.70
     Davidson diagonalization with overlap
     ethr =  3.37E-08,  avg # of iterations =  2.8

     negative rho (up, down):  2.990E-04 0.000E+00

     total cpu time spent up to now is        1.8 secs

     total energy              =     -69.45776636 Ry
     estimated scf accuracy    <       0.00000030 Ry

     iteration #  6     ecut=    20.00 Ry     beta= 0.70
     Davidson diagonalization with overlap
     ethr =  2.97E-09,  avg # of iterations =  5.7

     negative rho (up, down):  2.991E-04 0.000E+00

     total cpu time spent up to now is        2.1 secs

     total energy              =     -69.45776661 Ry
     estimated scf accuracy    <       0.00000007 Ry

     iteration #  7     ecut=    20.00 Ry     beta= 0.70
     Davidson diagonalization with overlap
     ethr =  6.94E-10,  avg # of iterations =  3.8

     negative rho (up, down):  2.991E-04 0.000E+00

     total cpu time spent up to now is        2.3 secs

     total energy              =     -69.45776662 Ry
     estimated scf accuracy    <       0.00000010 Ry

     iteration #  8     ecut=    20.00 Ry     beta= 0.70
     Davidson diagonalization with overlap
     ethr =  6.94E-10,  avg # of iterations =  2.3

     negative rho (up, down):  2.991E-04 0.000E+00

     total cpu time spent up to now is        2.5 secs

     End of self-consistent calculation

          k = 0.0000 0.0000 0.0000 (   169 PWs)   bands (ev):

     7.0386   7.0386  13.0446  13.0446  13.0446  13.0446  14.0416  14.0416
    15.7625  15.7625

          k =-0.1111 0.1111-0.1111 (   165 PWs)   bands (ev):

     7.5138   7.5138  12.9974  12.9974  13.1460  13.1460  14.1482  14.1482
    15.6023  15.6023

          k =-0.2222 0.2222-0.2222 (   153 PWs)   bands (ev):

     8.7291   8.7291  12.9103  12.9103  13.2276  13.2276  14.4208  14.4208
    15.5085  15.5085

          k =-0.3333 0.3333-0.3333 (   153 PWs)   bands (ev):

     9.7638   9.7638  13.0703  13.0703  13.7684  13.7684  14.1987  14.1987
    16.2298  16.2298

          k =-0.4444 0.4444-0.4444 (   162 PWs)   bands (ev):

     9.9688   9.9688  12.8912  12.8912  13.9072  13.9072  15.9414  15.9414
    16.9120  16.9120

          k = 0.0000 0.2222 0.0000 (   161 PWs)   bands (ev):

     7.6746   7.6746  12.8393  12.8393  13.2985  13.2985  14.2220  14.2220
    15.3981  15.3981

          k =-0.1111 0.3333-0.1111 (   158 PWs)   bands (ev):

     8.6720   8.6720  12.5734  12.5734  13.4357  13.4357  14.5653  14.5653
    15.2301  15.2301

          k =-0.2222 0.4444-0.2222 (   155 PWs)   bands (ev):

     9.9039   9.9039  12.7466  12.7466  13.2237  13.2237  14.4311  14.4311
    16.0965  16.0965

          k =-0.3333 0.5556-0.3333 (   155 PWs)   bands (ev):

    10.3174  10.3174  12.8855  12.8855  13.8856  13.8856  14.3981  14.3981
    17.1666  17.1666

          k = 0.5556-0.3333 0.5556 (   160 PWs)   bands (ev):

    10.3461  10.3461  12.8122  12.8122  13.9117  13.9117  15.0554  15.0554
    17.1085  17.1085

          k = 0.4444-0.2222 0.4444 (   154 PWs)   bands (ev):

    10.3013  10.3013  12.9661  12.9661  13.7983  13.7983  14.1664  14.1664
    16.2802  16.2802

          k = 0.3333-0.1111 0.3333 (   155 PWs)   bands (ev):

     9.5632   9.5632  12.6838  12.6838  13.3081  13.3081  14.5075  14.5075
    15.3257  15.3257

          k = 0.2222-0.0000 0.2222 (   159 PWs)   bands (ev):

     8.2588   8.2588  12.7858  12.7858  13.3138  13.3138  14.3944  14.3944
    15.2691  15.2691

          k = 0.0000 0.4444 0.0000 (   161 PWs)   bands (ev):

     9.3113   9.3113  12.0935  12.0935  13.7087  13.7087  15.0634  15.0634
    15.1138  15.1138

          k =-0.1111 0.5556-0.1111 (   156 PWs)   bands (ev):

    10.3090  10.3090  11.8048  11.8048  13.5525  13.5525  15.2325  15.2325
    16.1154  16.1154

          k =-0.2222 0.6667-0.2222 (   156 PWs)   bands (ev):

    10.8767  10.8767  12.1573  12.1573  13.3510  13.3510  15.0150  15.0150
    17.2835  17.2835

          k = 0.6667-0.2222 0.6667 (   155 PWs)   bands (ev):

    11.0784  11.0784  12.3985  12.3985  13.6689  13.6689  14.7885  14.7885
    17.1811  17.1811

          k = 0.5556-0.1111 0.5556 (   157 PWs)   bands (ev):

    11.3018  11.3018  12.5676  12.5676  13.3317  13.3317  14.6072  14.6072
    16.3191  16.3191

          k = 0.4444 0.0000 0.4444 (   154 PWs)   bands (ev):

    10.8760  10.8760  12.4420  12.4420  13.1004  13.1004  14.6506  14.6506
    15.4032  15.4032

          k = 0.0000 0.6667 0.0000 (   153 PWs)   bands (ev):

    10.4398  10.4398  11.2609  11.2609  14.7403  14.7403  16.2164  16.2164
    16.2487  16.2487

          k =-0.1111 0.7778-0.1111 (   158 PWs)   bands (ev):

    10.6112  10.6112  11.1494  11.1494  14.9532  14.9532  16.2859  16.2859
    17.3698  17.3698

          k = 0.7778-0.1111 0.7778 (   160 PWs)   bands (ev):

    10.9125  10.9125  11.6091  11.6091  14.3794  14.3794  15.8971  15.8971
    17.3894  17.3894

          k = 0.6667-0.0000 0.6667 (   164 PWs)   bands (ev):

    11.3924  11.3924  12.2661  12.2661  13.4999  13.4999  15.3316  15.3316
    16.7446  16.7446

          k = 0.0000 0.8889 0.0000 (   154 PWs)   bands (ev):

    10.2592  10.2592  10.7581  10.7581  16.9073  16.9073  17.0299  17.0299
    18.0792  18.0792

          k = 0.8889 0.0000 0.8889 (   154 PWs)   bands (ev):

    10.4171  10.4171  10.8984  10.8984  16.0713  16.0713  16.7877  16.7877
    17.7910  17.7910

          k =-0.2222 0.4444 0.0000 (   154 PWs)   bands (ev):

     9.7790   9.7790  12.2451  12.2451  13.3631  13.3631  14.9816  14.9816
    15.1964  15.1964

          k =-0.3333 0.5556-0.1111 (   155 PWs)   bands (ev):

    10.8297  10.8297  12.4787  12.4787  12.9568  12.9568  14.7950  14.7950
    16.1487  16.1487

          k = 0.5556-0.3333 0.7778 (   159 PWs)   bands (ev):

    10.9859  10.9859  12.5269  12.5269  13.6237  13.6237  14.6169  14.6169
    16.9921  16.9921

          k =-0.2222 0.6667 0.0000 (   152 PWs)   bands (ev):

    10.9360  10.9360  11.5659  11.5659  13.5608  13.5608  16.0354  16.0354
    16.3041  16.3041

          k = 0.6667-0.2222 0.8889 (   157 PWs)   bands (ev):

    11.2809  11.2809  11.8959  11.8959  13.3692  13.3692  15.6641  15.6641
    17.1413  17.1413

          k = 0.5556-0.1111 0.7778 (   158 PWs)   bands (ev):

    11.6366  11.6366  12.1381  12.1381  13.2061  13.2061  15.2493  15.2493
    17.0507  17.0507

          k = 0.4444 0.0000 0.6667 (   158 PWs)   bands (ev):

    11.9176  11.9176  12.2594  12.2594  12.5300  12.5300  15.2539  15.2539
    16.3566  16.3566

          k = 0.7778-0.1111 1.0000 (   157 PWs)   bands (ev):

    10.7160  10.7160  11.1401  11.1401  14.9649  14.9649  16.5534  16.5534
    17.5930  17.5930

          k = 0.6667-0.0000 0.8889 (   158 PWs)   bands (ev):

    11.1244  11.1244  11.6745  11.6745  14.0659  14.0659  15.8651  15.8651
    17.5538  17.5538

          k = 0.5556-0.1111 1.0000 (   160 PWs)   bands (ev):

    11.5780  11.5780  12.2432  12.2432  12.9566  12.9566  15.4932  15.4932
    17.5191  17.5191

     highest occupied level (ev):    18.0792

!    total energy              =     -69.45776664 Ry
     estimated scf accuracy    <          1.8E-11 Ry

     The total energy is the sum of the following terms:
     one-electron contribution =      16.65185898 Ry
     hartree contribution      =       3.87875270 Ry
     xc contribution           =     -28.52910115 Ry
     ewald contribution        =     -61.45927716 Ry

     convergence has been achieved in   8 iterations

     negative rho (up, down):  2.991E-04 0.000E+00

     Forces acting on atoms (cartesian axes, Ry/au):

     atom    1 type  1   force =     0.00000000    0.00000000    0.00000000

     Total force =     0.000000     Total SCF correction =     0.000000


     Computing stress (Cartesian axis) and pressure


     negative rho (up, down):  2.991E-04 0.000E+00
          total   stress  (Ry/bohr**3)                   (kbar)     P=       10.73
   0.00007291   0.00000000  -0.00000000           10.73        0.00       -0.00
   0.00000000   0.00007291  -0.00000000            0.00       10.73       -0.00
  -0.00000000  -0.00000000   0.00007291           -0.00       -0.00       10.73


     Writing all to output data dir ./platinum.save/ :
     XML data file, charge density, pseudopotentials, collected wavefunctions

     init_run     :      0.23s CPU      0.27s WALL (       1 calls)
     electrons    :      1.96s CPU      2.18s WALL (       1 calls)
     forces       :      0.03s CPU      0.04s WALL (       1 calls)
     stress       :      0.16s CPU      0.16s WALL (       1 calls)

     Called by init_run:
     wfcinit      :      0.05s CPU      0.07s WALL (       1 calls)
     potinit      :      0.01s CPU      0.01s WALL (       1 calls)
     hinit0       :      0.16s CPU      0.17s WALL (       1 calls)

     Called by electrons:
     c_bands      :      1.57s CPU      1.75s WALL (       9 calls)
     sum_band     :      0.30s CPU      0.33s WALL (       9 calls)
     v_of_rho     :      0.00s CPU      0.00s WALL (       9 calls)
     newd         :      0.10s CPU      0.10s WALL (       9 calls)
     mix_rho      :      0.00s CPU      0.00s WALL (       9 calls)

     Called by c_bands:
     init_us_2    :      0.02s CPU      0.03s WALL (     735 calls)
     cegterg      :      1.48s CPU      1.65s WALL (     315 calls)

     Called by *egterg:
     cdiaghg      :      0.10s CPU      0.11s WALL (    1519 calls)
     h_psi        :      0.85s CPU      0.97s WALL (    1589 calls)
     s_psi        :      0.13s CPU      0.15s WALL (    1589 calls)
     g_psi        :      0.01s CPU      0.02s WALL (    1239 calls)

     Called by h_psi:
     h_psi:calbec :      0.11s CPU      0.12s WALL (    1589 calls)
     vloc_psi     :      0.59s CPU      0.68s WALL (    1589 calls)
     add_vuspsi   :      0.13s CPU      0.15s WALL (    1589 calls)

     General routines
     calbec       :      0.15s CPU      0.16s WALL (    2079 calls)
     fft          :      0.02s CPU      0.03s WALL (      99 calls)
     ffts         :      0.00s CPU      0.00s WALL (      36 calls)
     fftw         :      0.44s CPU      0.51s WALL (   52620 calls)

     Parallel routines

     PWSCF        :      2.48s CPU      2.74s WALL


   This run was terminated on:  22: 1:15   4Nov2024            

=------------------------------------------------------------------------------=
   JOB DONE.
=------------------------------------------------------------------------------=
