
     Program PWSCF v.7.3.1 starts on  4Nov2024 at 22: 0:37 

     This program is part of the open-source Quantum ESPRESSO suite
     for quantum simulation of materials; please cite
         "P. Giannozzi et al., J. Phys.:Condens. Matter 21 395502 (2009);
         "P. Giannozzi et al., J. Phys.:Condens. Matter 29 465901 (2017);
         "P. Giannozzi et al., J. Chem. Phys. 152 154105 (2020);
          URL http://www.quantum-espresso.org", 
     in publications or presentations arising from this work. More details at
     http://www.quantum-espresso.org/quote

     Parallel version (MPI), running on     1 processors

     MPI processes distributed on     1 nodes
     11876 MiB available memory on the printing compute node when the environment starts

     Waiting for input...
     Reading input from standard input

     Current dimensions of program PWSCF are:
     Max number of different atomic species (ntypx) = 10
     Max number of k-points (npk) =  40000
     Max angular momentum in pseudopotentials (lmaxx) =  4

     Subspace diagonalization in iterative solution of the eigenvalue problem:
     a serial algorithm will be used


     G-vector sticks info
     --------------------
     sticks:   dense  smooth     PW     G-vecs:    dense   smooth      PW
     Sum         151     151     55                 1211     1211     283

     Using Slab Decomposition



     bravais-lattice index     =            2
     lattice parameter (alat)  =       7.2800  a.u.
     unit-cell volume          =      96.4571 (a.u.)^3
     number of atoms/cell      =            1
     number of atomic types    =            1
     number of electrons       =        10.00
     number of Kohn-Sham states=           10
     kinetic-energy cutoff     =      20.0000  Ry
     charge density cutoff     =      80.0000  Ry
     scf convergence threshold =      1.0E-08
     mixing beta               =       0.7000
     number of iterations used =            8  plain     mixing
     Exchange-correlation=  SLA  PZ   NOGX NOGC
                           (   1   1   0   0   0   0   0)
     Non magnetic calculation with spin-orbit


     celldm(1)=   7.280000  celldm(2)=   0.000000  celldm(3)=   0.000000
     celldm(4)=   0.000000  celldm(5)=   0.000000  celldm(6)=   0.000000

     crystal axes: (cart. coord. in units of alat)
               a(1) = (  -0.500000   0.000000   0.500000 )  
               a(2) = (   0.000000   0.500000   0.500000 )  
               a(3) = (  -0.500000   0.500000   0.000000 )  

     reciprocal axes: (cart. coord. in units 2 pi/alat)
               b(1) = ( -1.000000 -1.000000  1.000000 )  
               b(2) = (  1.000000  1.000000  1.000000 )  
               b(3) = ( -1.000000  1.000000 -1.000000 )  


     PseudoPot. # 1 for Pt read from file:
     /home/dashlander/Desktop/Sem7/CPD/Assignment_3/pseudo/Pt.rel-pz-n-rrkjus.UPF
     MD5 check sum: 4baafe8ec1942611396c7a5466f52249
     Pseudo is Ultrasoft + core correction, Zval = 10.0
     Generated by new atomic code, or converted to UPF format
     Using radial grid of 1277 points,  6 beta functions with: 
                l(1) =   2
                l(2) =   2
                l(3) =   2
                l(4) =   2
                l(5) =   1
                l(6) =   1
     Q(r) pseudized with 0 coefficients 


     atomic species   valence    mass     pseudopotential
     Pt               10.00   195.08400     Pt( 1.00)

     48 Sym. Ops., with inversion, found



   Cartesian axes

     site n.     atom                  positions (alat units)
         1        Pt     tau(   1) = (   0.0000000   0.0000000   0.0000000  )

     number of k points=    35
                       cart. coord. in units 2pi/alat
        k(    1) = (   0.0000000   0.0000000   0.0000000), wk =   0.0013717
        k(    2) = (  -0.1111111   0.1111111  -0.1111111), wk =   0.0109739
        k(    3) = (  -0.2222222   0.2222222  -0.2222222), wk =   0.0109739
        k(    4) = (  -0.3333333   0.3333333  -0.3333333), wk =   0.0109739
        k(    5) = (  -0.4444444   0.4444444  -0.4444444), wk =   0.0109739
        k(    6) = (   0.0000000   0.2222222   0.0000000), wk =   0.0082305
        k(    7) = (  -0.1111111   0.3333333  -0.1111111), wk =   0.0329218
        k(    8) = (  -0.2222222   0.4444444  -0.2222222), wk =   0.0329218
        k(    9) = (  -0.3333333   0.5555556  -0.3333333), wk =   0.0329218
        k(   10) = (   0.5555556  -0.3333333   0.5555556), wk =   0.0329218
        k(   11) = (   0.4444444  -0.2222222   0.4444444), wk =   0.0329218
        k(   12) = (   0.3333333  -0.1111111   0.3333333), wk =   0.0329218
        k(   13) = (   0.2222222  -0.0000000   0.2222222), wk =   0.0164609
        k(   14) = (   0.0000000   0.4444444   0.0000000), wk =   0.0082305
        k(   15) = (  -0.1111111   0.5555556  -0.1111111), wk =   0.0329218
        k(   16) = (  -0.2222222   0.6666667  -0.2222222), wk =   0.0329218
        k(   17) = (   0.6666667  -0.2222222   0.6666667), wk =   0.0329218
        k(   18) = (   0.5555556  -0.1111111   0.5555556), wk =   0.0329218
        k(   19) = (   0.4444444   0.0000000   0.4444444), wk =   0.0164609
        k(   20) = (   0.0000000   0.6666667   0.0000000), wk =   0.0082305
        k(   21) = (  -0.1111111   0.7777778  -0.1111111), wk =   0.0329218
        k(   22) = (   0.7777778  -0.1111111   0.7777778), wk =   0.0329218
        k(   23) = (   0.6666667  -0.0000000   0.6666667), wk =   0.0164609
        k(   24) = (   0.0000000   0.8888889   0.0000000), wk =   0.0082305
        k(   25) = (   0.8888889   0.0000000   0.8888889), wk =   0.0164609
        k(   26) = (  -0.2222222   0.4444444   0.0000000), wk =   0.0329218
        k(   27) = (  -0.3333333   0.5555556  -0.1111111), wk =   0.0658436
        k(   28) = (   0.5555556  -0.3333333   0.7777778), wk =   0.0658436
        k(   29) = (  -0.2222222   0.6666667   0.0000000), wk =   0.0329218
        k(   30) = (   0.6666667  -0.2222222   0.8888889), wk =   0.0658436
        k(   31) = (   0.5555556  -0.1111111   0.7777778), wk =   0.0658436
        k(   32) = (   0.4444444   0.0000000   0.6666667), wk =   0.0329218
        k(   33) = (   0.7777778  -0.1111111   1.0000000), wk =   0.0329218
        k(   34) = (   0.6666667  -0.0000000   0.8888889), wk =   0.0329218
        k(   35) = (   0.5555556  -0.1111111   1.0000000), wk =   0.0329218

     Dense  grid:     1211 G-vectors     FFT dimensions: (  15,  15,  15)

     Estimated max dynamical RAM per process >      11.71 MB

     Check: negative core charge=   -0.000032

     Initial potential from superposition of free atoms

     starting charge       9.9999, renormalised to      10.0000

     negative rho (up, down):  8.306E-05 0.000E+00
     Starting wfcs are   12 randomized atomic wfcs

     total cpu time spent up to now is        0.4 secs

     Self-consistent Calculation

     iteration #  1     ecut=    20.00 Ry     beta= 0.70
     Davidson diagonalization with overlap
     ethr =  1.00E-02,  avg # of iterations =  2.2

     Threshold (ethr) on eigenvalues was too large:
     Diagonalizing with lowered threshold

     Davidson diagonalization with overlap
     ethr =  1.26E-05,  avg # of iterations =  8.0

     negative rho (up, down):  1.764E-04 0.000E+00

     total cpu time spent up to now is        0.9 secs

     total energy              =     -69.44965372 Ry
     estimated scf accuracy    <       0.00449011 Ry

     iteration #  2     ecut=    20.00 Ry     beta= 0.70
     Davidson diagonalization with overlap
     ethr =  4.49E-05,  avg # of iterations =  2.1

     negative rho (up, down):  2.020E-04 0.000E+00

     total cpu time spent up to now is        1.1 secs

     total energy              =     -69.45084457 Ry
     estimated scf accuracy    <       0.00047972 Ry

     iteration #  3     ecut=    20.00 Ry     beta= 0.70
     Davidson diagonalization with overlap
     ethr =  4.80E-06,  avg # of iterations =  2.0

     negative rho (up, down):  2.207E-04 0.000E+00

     total cpu time spent up to now is        1.3 secs

     total energy              =     -69.45091959 Ry
     estimated scf accuracy    <       0.00001467 Ry

     iteration #  4     ecut=    20.00 Ry     beta= 0.70
     Davidson diagonalization with overlap
     ethr =  1.47E-07,  avg # of iterations =  6.5

     negative rho (up, down):  2.209E-04 0.000E+00

     total cpu time spent up to now is        1.6 secs

     total energy              =     -69.45093728 Ry
     estimated scf accuracy    <       0.00000257 Ry

     iteration #  5     ecut=    20.00 Ry     beta= 0.70
     Davidson diagonalization with overlap
     ethr =  2.57E-08,  avg # of iterations =  3.3

     negative rho (up, down):  2.215E-04 0.000E+00

     total cpu time spent up to now is        1.8 secs

     total energy              =     -69.45093752 Ry
     estimated scf accuracy    <       0.00000039 Ry

     iteration #  6     ecut=    20.00 Ry     beta= 0.70
     Davidson diagonalization with overlap
     ethr =  3.92E-09,  avg # of iterations =  4.1

     negative rho (up, down):  2.216E-04 0.000E+00

     total cpu time spent up to now is        2.0 secs

     total energy              =     -69.45093773 Ry
     estimated scf accuracy    <       0.00000001 Ry

     iteration #  7     ecut=    20.00 Ry     beta= 0.70
     Davidson diagonalization with overlap
     ethr =  1.24E-10,  avg # of iterations =  5.1

     negative rho (up, down):  2.216E-04 0.000E+00

     total cpu time spent up to now is        2.3 secs

     End of self-consistent calculation

          k = 0.0000 0.0000 0.0000 (   137 PWs)   bands (ev):

     8.1247   8.1247  14.5203  14.5203  14.5203  14.5203  15.5026  15.5026
    17.4742  17.4742

          k =-0.1111 0.1111-0.1111 (   153 PWs)   bands (ev):

     8.6306   8.6306  14.4556  14.4556  14.6408  14.6408  15.6244  15.6244
    17.2935  17.2935

          k =-0.2222 0.2222-0.2222 (   150 PWs)   bands (ev):

     9.9139   9.9139  14.3371  14.3371  14.7389  14.7389  15.9249  15.9249
    17.2081  17.2081

          k =-0.3333 0.3333-0.3333 (   144 PWs)   bands (ev):

    10.9489  10.9489  14.5541  14.5541  15.2836  15.2836  15.6727  15.6727
    18.0330  18.0330

          k =-0.4444 0.4444-0.4444 (   147 PWs)   bands (ev):

    11.1162  11.1162  14.3462  14.3462  15.3552  15.3552  17.5625  17.5625
    18.8098  18.8098

          k = 0.0000 0.2222 0.0000 (   153 PWs)   bands (ev):

     8.8028   8.8028  14.2720  14.2720  14.8142  14.8142  15.7153  15.7153
    17.0409  17.0409

          k =-0.1111 0.3333-0.1111 (   150 PWs)   bands (ev):

     9.8629   9.8629  13.9558  13.9558  14.9710  14.9710  16.0993  16.0993
    16.8618  16.8618

          k =-0.2222 0.4444-0.2222 (   145 PWs)   bands (ev):

    11.1288  11.1288  14.1560  14.1560  14.7030  14.7030  15.9433  15.9433
    17.8712  17.8712

          k =-0.3333 0.5556-0.3333 (   147 PWs)   bands (ev):

    11.5040  11.5040  14.3237  14.3237  15.3730  15.3730  15.9094  15.9094
    19.0902  19.0902

          k = 0.5556-0.3333 0.5556 (   147 PWs)   bands (ev):

    11.5222  11.5222  14.2405  14.2405  15.3752  15.3752  16.6335  16.6335
    19.0170  19.0170

          k = 0.4444-0.2222 0.4444 (   146 PWs)   bands (ev):

    11.5065  11.5065  14.4264  14.4264  15.2923  15.2923  15.6460  15.6460
    18.0666  18.0666

          k = 0.3333-0.1111 0.3333 (   147 PWs)   bands (ev):

    10.7932  10.7932  14.0813  14.0813  14.8146  14.8146  16.0255  16.0255
    16.9785  16.9785

          k = 0.2222-0.0000 0.2222 (   149 PWs)   bands (ev):

     9.4260   9.4260  14.2017  14.2017  14.8344  14.8344  15.9051  15.9051
    16.9060  16.9060

          k = 0.0000 0.4444 0.0000 (   149 PWs)   bands (ev):

    10.5330  10.5330  13.4064  13.4064  15.2781  15.2781  16.6884  16.6884
    16.7054  16.7054

          k =-0.1111 0.5556-0.1111 (   141 PWs)   bands (ev):

    11.5530  11.5530  13.0817  13.0817  15.0662  15.0662  16.8710  16.8710
    17.8937  17.8937

          k =-0.2222 0.6667-0.2222 (   145 PWs)   bands (ev):

    12.0965  12.0965  13.4747  13.4747  14.8246  14.8246  16.6232  16.6232
    19.2268  19.2268

          k = 0.6667-0.2222 0.6667 (   148 PWs)   bands (ev):

    12.3075  12.3075  13.7394  13.7394  15.1543  15.1543  16.3599  16.3599
    19.0958  19.0958

          k = 0.5556-0.1111 0.5556 (   144 PWs)   bands (ev):

    12.5770  12.5770  13.9440  13.9440  14.7596  14.7596  16.1742  16.1742
    18.1025  18.1025

          k = 0.4444 0.0000 0.4444 (   144 PWs)   bands (ev):

    12.1805  12.1805  13.8071  13.8071  14.5320  14.5320  16.2242  16.2242
    17.0499  17.0499

          k = 0.0000 0.6667 0.0000 (   141 PWs)   bands (ev):

    11.6255  11.6255  12.4688  12.4688  16.3890  16.3890  17.9833  17.9833
    18.0654  18.0654

          k =-0.1111 0.7778-0.1111 (   139 PWs)   bands (ev):

    11.7692  11.7692  12.3475  12.3475  16.5924  16.5924  18.0813  18.0813
    19.3121  19.3121

          k = 0.7778-0.1111 0.7778 (   140 PWs)   bands (ev):

    12.0867  12.0867  12.8626  12.8626  15.9395  15.9395  17.6395  17.6395
    19.3231  19.3231

          k = 0.6667-0.0000 0.6667 (   142 PWs)   bands (ev):

    12.6282  12.6282  13.6044  13.6044  14.9474  14.9474  17.0039  17.0039
    18.5837  18.5837

          k = 0.0000 0.8889 0.0000 (   142 PWs)   bands (ev):

    11.3640  11.3640  11.9091  11.9091  18.8284  18.8284  18.9549  18.9549
    19.8822  19.8822

          k = 0.8889 0.0000 0.8889 (   142 PWs)   bands (ev):

    11.5327  11.5327  12.0683  12.0683  17.8225  17.8225  18.6752  18.6752
    19.7471  19.7471

          k =-0.2222 0.4444 0.0000 (   145 PWs)   bands (ev):

    11.0294  11.0294  13.5788  13.5788  14.8611  14.8611  16.5751  16.5751
    16.8357  16.8357

          k =-0.3333 0.5556-0.1111 (   146 PWs)   bands (ev):

    12.0960  12.0960  13.8521  13.8521  14.3678  14.3678  16.3766  16.3766
    17.9135  17.9135

          k = 0.5556-0.3333 0.7778 (   145 PWs)   bands (ev):

    12.2223  12.2223  13.8866  13.8866  15.1043  15.1043  16.1590  16.1590
    18.8809  18.8809

          k =-0.2222 0.6667 0.0000 (   146 PWs)   bands (ev):

    12.1680  12.1680  12.8139  12.8139  15.0556  15.0556  17.7912  17.7912
    18.0896  18.0896

          k = 0.6667-0.2222 0.8889 (   146 PWs)   bands (ev):

    12.5091  12.5091  13.1815  13.1815  14.8267  14.8267  17.3607  17.3607
    19.0474  19.0474

          k = 0.5556-0.1111 0.7778 (   147 PWs)   bands (ev):

    12.9064  12.9064  13.4522  13.4522  14.6316  14.6316  16.8888  16.8888
    18.9425  18.9425

          k = 0.4444 0.0000 0.6667 (   144 PWs)   bands (ev):

    13.2688  13.2688  13.6043  13.6043  13.8466  13.8466  16.9020  16.9020
    18.1474  18.1474

          k = 0.7778-0.1111 1.0000 (   145 PWs)   bands (ev):

    11.8656  11.8656  12.3395  12.3395  16.5905  16.5905  18.3865  18.3865
    19.5465  19.5465

          k = 0.6667-0.0000 0.8889 (   143 PWs)   bands (ev):

    12.3132  12.3132  12.9397  12.9397  15.5875  15.5875  17.5931  17.5931
    19.5137  19.5137

          k = 0.5556-0.1111 1.0000 (   149 PWs)   bands (ev):

    12.8151  12.8151  13.5846  13.5846  14.3510  14.3510  17.1612  17.1612
    19.4809  19.4809

     highest occupied level (ev):    19.8822

!    total energy              =     -69.45093773 Ry
     estimated scf accuracy    <          1.1E-10 Ry

     The total energy is the sum of the following terms:
     one-electron contribution =      18.67373467 Ry
     hartree contribution      =       3.47642061 Ry
     xc contribution           =     -28.62221835 Ry
     ewald contribution        =     -62.97887467 Ry

     convergence has been achieved in   7 iterations

     negative rho (up, down):  2.216E-04 0.000E+00

     Forces acting on atoms (cartesian axes, Ry/au):

     atom    1 type  1   force =     0.00000000    0.00000000    0.00000000

     Total force =     0.000000     Total SCF correction =     0.000000


     Computing stress (Cartesian axis) and pressure


     negative rho (up, down):  2.216E-04 0.000E+00
          total   stress  (Ry/bohr**3)                   (kbar)     P=      260.01
   0.00176754   0.00000000  -0.00000000          260.01        0.00       -0.00
   0.00000000   0.00176754   0.00000000            0.00      260.01        0.00
  -0.00000000   0.00000000   0.00176754           -0.00        0.00      260.01


     Writing all to output data dir ./platinum.save/ :
     XML data file, charge density, pseudopotentials, collected wavefunctions

     init_run     :      0.23s CPU      0.27s WALL (       1 calls)
     electrons    :      1.66s CPU      1.89s WALL (       1 calls)
     forces       :      0.03s CPU      0.04s WALL (       1 calls)
     stress       :      0.15s CPU      0.15s WALL (       1 calls)

     Called by init_run:
     wfcinit      :      0.06s CPU      0.07s WALL (       1 calls)
     potinit      :      0.01s CPU      0.01s WALL (       1 calls)
     hinit0       :      0.16s CPU      0.17s WALL (       1 calls)

     Called by electrons:
     c_bands      :      1.31s CPU      1.52s WALL (       8 calls)
     sum_band     :      0.27s CPU      0.29s WALL (       8 calls)
     v_of_rho     :      0.00s CPU      0.00s WALL (       8 calls)
     newd         :      0.09s CPU      0.09s WALL (       8 calls)
     mix_rho      :      0.00s CPU      0.00s WALL (       8 calls)

     Called by c_bands:
     init_us_2    :      0.02s CPU      0.02s WALL (     665 calls)
     cegterg      :      1.24s CPU      1.43s WALL (     280 calls)

     Called by *egterg:
     cdiaghg      :      0.08s CPU      0.10s WALL (    1411 calls)
     h_psi        :      0.74s CPU      0.87s WALL (    1481 calls)
     s_psi        :      0.11s CPU      0.13s WALL (    1481 calls)
     g_psi        :      0.01s CPU      0.01s WALL (    1166 calls)

     Called by h_psi:
     h_psi:calbec :      0.09s CPU      0.10s WALL (    1481 calls)
     vloc_psi     :      0.52s CPU      0.62s WALL (    1481 calls)
     add_vuspsi   :      0.11s CPU      0.13s WALL (    1481 calls)

     General routines
     calbec       :      0.12s CPU      0.14s WALL (    1936 calls)
     fft          :      0.02s CPU      0.03s WALL (      89 calls)
     ffts         :      0.00s CPU      0.00s WALL (      32 calls)
     fftw         :      0.39s CPU      0.46s WALL (   47260 calls)

     Parallel routines

     PWSCF        :      2.17s CPU      2.45s WALL


   This run was terminated on:  22: 0:39   4Nov2024            

=------------------------------------------------------------------------------=
   JOB DONE.
=------------------------------------------------------------------------------=
