
     Program PWSCF v.7.3.1 starts on  4Nov2024 at 22: 2:19 

     This program is part of the open-source Quantum ESPRESSO suite
     for quantum simulation of materials; please cite
         "P. Giannozzi et al., J. Phys.:Condens. Matter 21 395502 (2009);
         "P. Giannozzi et al., J. Phys.:Condens. Matter 29 465901 (2017);
         "P. Giannozzi et al., J. Chem. Phys. 152 154105 (2020);
          URL http://www.quantum-espresso.org", 
     in publications or presentations arising from this work. More details at
     http://www.quantum-espresso.org/quote

     Parallel version (MPI), running on     1 processors

     MPI processes distributed on     1 nodes
     11848 MiB available memory on the printing compute node when the environment starts

     Waiting for input...
     Reading input from standard input

     Current dimensions of program PWSCF are:
     Max number of different atomic species (ntypx) = 10
     Max number of k-points (npk) =  40000
     Max angular momentum in pseudopotentials (lmaxx) =  4

     Subspace diagonalization in iterative solution of the eigenvalue problem:
     a serial algorithm will be used


     G-vector sticks info
     --------------------
     sticks:   dense  smooth     PW     G-vecs:    dense   smooth      PW
     Sum         163     163     61                 1411     1411     331

     Using Slab Decomposition



     bravais-lattice index     =            2
     lattice parameter (alat)  =       7.7400  a.u.
     unit-cell volume          =     115.9212 (a.u.)^3
     number of atoms/cell      =            1
     number of atomic types    =            1
     number of electrons       =        10.00
     number of Kohn-Sham states=           10
     kinetic-energy cutoff     =      20.0000  Ry
     charge density cutoff     =      80.0000  Ry
     scf convergence threshold =      1.0E-08
     mixing beta               =       0.7000
     number of iterations used =            8  plain     mixing
     Exchange-correlation=  SLA  PZ   NOGX NOGC
                           (   1   1   0   0   0   0   0)
     Non magnetic calculation with spin-orbit


     celldm(1)=   7.740000  celldm(2)=   0.000000  celldm(3)=   0.000000
     celldm(4)=   0.000000  celldm(5)=   0.000000  celldm(6)=   0.000000

     crystal axes: (cart. coord. in units of alat)
               a(1) = (  -0.500000   0.000000   0.500000 )  
               a(2) = (   0.000000   0.500000   0.500000 )  
               a(3) = (  -0.500000   0.500000   0.000000 )  

     reciprocal axes: (cart. coord. in units 2 pi/alat)
               b(1) = ( -1.000000 -1.000000  1.000000 )  
               b(2) = (  1.000000  1.000000  1.000000 )  
               b(3) = ( -1.000000  1.000000 -1.000000 )  


     PseudoPot. # 1 for Pt read from file:
     /home/dashlander/Desktop/Sem7/CPD/Assignment_3/pseudo/Pt.rel-pz-n-rrkjus.UPF
     MD5 check sum: 4baafe8ec1942611396c7a5466f52249
     Pseudo is Ultrasoft + core correction, Zval = 10.0
     Generated by new atomic code, or converted to UPF format
     Using radial grid of 1277 points,  6 beta functions with: 
                l(1) =   2
                l(2) =   2
                l(3) =   2
                l(4) =   2
                l(5) =   1
                l(6) =   1
     Q(r) pseudized with 0 coefficients 


     atomic species   valence    mass     pseudopotential
     Pt               10.00   195.08400     Pt( 1.00)

     48 Sym. Ops., with inversion, found



   Cartesian axes

     site n.     atom                  positions (alat units)
         1        Pt     tau(   1) = (   0.0000000   0.0000000   0.0000000  )

     number of k points=    35
                       cart. coord. in units 2pi/alat
        k(    1) = (   0.0000000   0.0000000   0.0000000), wk =   0.0013717
        k(    2) = (  -0.1111111   0.1111111  -0.1111111), wk =   0.0109739
        k(    3) = (  -0.2222222   0.2222222  -0.2222222), wk =   0.0109739
        k(    4) = (  -0.3333333   0.3333333  -0.3333333), wk =   0.0109739
        k(    5) = (  -0.4444444   0.4444444  -0.4444444), wk =   0.0109739
        k(    6) = (   0.0000000   0.2222222   0.0000000), wk =   0.0082305
        k(    7) = (  -0.1111111   0.3333333  -0.1111111), wk =   0.0329218
        k(    8) = (  -0.2222222   0.4444444  -0.2222222), wk =   0.0329218
        k(    9) = (  -0.3333333   0.5555556  -0.3333333), wk =   0.0329218
        k(   10) = (   0.5555556  -0.3333333   0.5555556), wk =   0.0329218
        k(   11) = (   0.4444444  -0.2222222   0.4444444), wk =   0.0329218
        k(   12) = (   0.3333333  -0.1111111   0.3333333), wk =   0.0329218
        k(   13) = (   0.2222222  -0.0000000   0.2222222), wk =   0.0164609
        k(   14) = (   0.0000000   0.4444444   0.0000000), wk =   0.0082305
        k(   15) = (  -0.1111111   0.5555556  -0.1111111), wk =   0.0329218
        k(   16) = (  -0.2222222   0.6666667  -0.2222222), wk =   0.0329218
        k(   17) = (   0.6666667  -0.2222222   0.6666667), wk =   0.0329218
        k(   18) = (   0.5555556  -0.1111111   0.5555556), wk =   0.0329218
        k(   19) = (   0.4444444   0.0000000   0.4444444), wk =   0.0164609
        k(   20) = (   0.0000000   0.6666667   0.0000000), wk =   0.0082305
        k(   21) = (  -0.1111111   0.7777778  -0.1111111), wk =   0.0329218
        k(   22) = (   0.7777778  -0.1111111   0.7777778), wk =   0.0329218
        k(   23) = (   0.6666667  -0.0000000   0.6666667), wk =   0.0164609
        k(   24) = (   0.0000000   0.8888889   0.0000000), wk =   0.0082305
        k(   25) = (   0.8888889   0.0000000   0.8888889), wk =   0.0164609
        k(   26) = (  -0.2222222   0.4444444   0.0000000), wk =   0.0329218
        k(   27) = (  -0.3333333   0.5555556  -0.1111111), wk =   0.0658436
        k(   28) = (   0.5555556  -0.3333333   0.7777778), wk =   0.0658436
        k(   29) = (  -0.2222222   0.6666667   0.0000000), wk =   0.0329218
        k(   30) = (   0.6666667  -0.2222222   0.8888889), wk =   0.0658436
        k(   31) = (   0.5555556  -0.1111111   0.7777778), wk =   0.0658436
        k(   32) = (   0.4444444   0.0000000   0.6666667), wk =   0.0329218
        k(   33) = (   0.7777778  -0.1111111   1.0000000), wk =   0.0329218
        k(   34) = (   0.6666667  -0.0000000   0.8888889), wk =   0.0329218
        k(   35) = (   0.5555556  -0.1111111   1.0000000), wk =   0.0329218

     Dense  grid:     1411 G-vectors     FFT dimensions: (  15,  15,  15)

     Estimated max dynamical RAM per process >      13.48 MB

     Check: negative core charge=   -0.000054

     Initial potential from superposition of free atoms

     starting charge       9.9999, renormalised to      10.0000

     negative rho (up, down):  1.897E-04 0.000E+00
     Starting wfcs are   12 randomized atomic wfcs

     total cpu time spent up to now is        0.4 secs

     Self-consistent Calculation

     iteration #  1     ecut=    20.00 Ry     beta= 0.70
     Davidson diagonalization with overlap
     ethr =  1.00E-02,  avg # of iterations =  2.0

     Threshold (ethr) on eigenvalues was too large:
     Diagonalizing with lowered threshold

     Davidson diagonalization with overlap
     ethr =  3.74E-05,  avg # of iterations =  6.5

     negative rho (up, down):  2.702E-04 0.000E+00

     total cpu time spent up to now is        1.0 secs

     total energy              =     -69.44785289 Ry
     estimated scf accuracy    <       0.00227359 Ry

     iteration #  2     ecut=    20.00 Ry     beta= 0.70
     Davidson diagonalization with overlap
     ethr =  2.27E-05,  avg # of iterations =  2.3

     negative rho (up, down):  2.925E-04 0.000E+00

     total cpu time spent up to now is        1.2 secs

     total energy              =     -69.44837186 Ry
     estimated scf accuracy    <       0.00027177 Ry

     iteration #  3     ecut=    20.00 Ry     beta= 0.70
     Davidson diagonalization with overlap
     ethr =  2.72E-06,  avg # of iterations =  2.6

     negative rho (up, down):  3.087E-04 0.000E+00

     total cpu time spent up to now is        1.4 secs

     total energy              =     -69.44844404 Ry
     estimated scf accuracy    <       0.00000932 Ry

     iteration #  4     ecut=    20.00 Ry     beta= 0.70
     Davidson diagonalization with overlap
     ethr =  9.32E-08,  avg # of iterations =  7.0

     negative rho (up, down):  3.088E-04 0.000E+00

     total cpu time spent up to now is        1.8 secs

     total energy              =     -69.44845701 Ry
     estimated scf accuracy    <       0.00000163 Ry

     iteration #  5     ecut=    20.00 Ry     beta= 0.70
     Davidson diagonalization with overlap
     ethr =  1.63E-08,  avg # of iterations =  3.9

     negative rho (up, down):  3.088E-04 0.000E+00

     total cpu time spent up to now is        2.0 secs

     total energy              =     -69.44845774 Ry
     estimated scf accuracy    <       0.00000024 Ry

     iteration #  6     ecut=    20.00 Ry     beta= 0.70
     Davidson diagonalization with overlap
     ethr =  2.36E-09,  avg # of iterations =  3.2

     negative rho (up, down):  3.089E-04 0.000E+00

     total cpu time spent up to now is        2.2 secs

     total energy              =     -69.44845777 Ry
     estimated scf accuracy    <       0.00000004 Ry

     iteration #  7     ecut=    20.00 Ry     beta= 0.70
     Davidson diagonalization with overlap
     ethr =  4.19E-10,  avg # of iterations =  4.3

     negative rho (up, down):  3.089E-04 0.000E+00

     total cpu time spent up to now is        2.5 secs

     total energy              =     -69.44845780 Ry
     estimated scf accuracy    <       0.00000001 Ry

     iteration #  8     ecut=    20.00 Ry     beta= 0.70
     Davidson diagonalization with overlap
     ethr =  1.10E-10,  avg # of iterations =  2.8

     negative rho (up, down):  3.088E-04 0.000E+00

     total cpu time spent up to now is        2.7 secs

     End of self-consistent calculation

          k = 0.0000 0.0000 0.0000 (   169 PWs)   bands (ev):

     5.5732   5.5732  11.0039  11.0039  11.0039  11.0039  12.0241  12.0241
    13.4266  13.4266

          k =-0.1111 0.1111-0.1111 (   172 PWs)   bands (ev):

     6.0018   6.0018  10.9782  10.9782  11.0813  11.0813  12.1120  12.1120
    13.2892  13.2892

          k =-0.2222 0.2222-0.2222 (   171 PWs)   bands (ev):

     7.1178   7.1178  10.9355  10.9355  11.1427  11.1427  12.3464  12.3464
    13.1858  13.1858

          k =-0.3333 0.3333-0.3333 (   171 PWs)   bands (ev):

     8.1370   8.1370  11.0208  11.0208  11.6891  11.6891  12.1641  12.1641
    13.7783  13.7783

          k =-0.4444 0.4444-0.4444 (   174 PWs)   bands (ev):

     8.3821   8.3821  10.8788  10.8788  11.9044  11.9044  13.7048  13.7048
    14.3629  14.3629

          k = 0.0000 0.2222 0.0000 (   173 PWs)   bands (ev):

     6.1465   6.1465  10.8519  10.8519  11.2069  11.2069  12.1654  12.1654
    13.1454  13.1454

          k =-0.1111 0.3333-0.1111 (   167 PWs)   bands (ev):

     7.0578   7.0578  10.6530  10.6530  11.3201  11.3201  12.4528  12.4528
    12.9939  12.9939

          k =-0.2222 0.4444-0.2222 (   173 PWs)   bands (ev):

     8.2298   8.2298  10.7983  10.7983  11.1823  11.1823  12.3486  12.3486
    13.6736  13.6736

          k =-0.3333 0.5556-0.3333 (   170 PWs)   bands (ev):

     8.6797   8.6797  10.8893  10.8893  11.8406  11.8406  12.3251  12.3251
    14.5512  14.5512

          k = 0.5556-0.3333 0.5556 (   174 PWs)   bands (ev):

     8.7197   8.7197  10.8300  10.8300  11.8930  11.8930  12.8934  12.8934
    14.5159  14.5159

          k = 0.4444-0.2222 0.4444 (   171 PWs)   bands (ev):

     8.6430   8.6430  10.9445  10.9445  11.7468  11.7468  12.1287  12.1287
    13.8441  13.8441

          k = 0.3333-0.1111 0.3333 (   170 PWs)   bands (ev):

     7.8895   7.8895  10.7492  10.7492  11.2292  11.2292  12.4157  12.4157
    13.0605  13.0605

          k = 0.2222-0.0000 0.2222 (   174 PWs)   bands (ev):

     6.6780   6.6780  10.8214  10.8214  11.2167  11.2167  12.3132  12.3132
    13.0241  13.0241

          k = 0.0000 0.4444 0.0000 (   169 PWs)   bands (ev):

     7.6521   7.6521  10.2645  10.2645  11.5484  11.5484  12.8337  12.8337
    12.9281  12.9281

          k =-0.1111 0.5556-0.1111 (   173 PWs)   bands (ev):

     8.6076   8.6076  10.0277  10.0277  11.4655  11.4655  12.9880  12.9880
    13.6882  13.6882

          k =-0.2222 0.6667-0.2222 (   178 PWs)   bands (ev):

     9.1889   9.1889  10.3299  10.3299  11.3287  11.3287  12.8089  12.8089
    14.6433  14.6433

          k = 0.6667-0.2222 0.6667 (   178 PWs)   bands (ev):

     9.3749   9.3749  10.5333  10.5333  11.6369  11.6369  12.6308  12.6308
    14.5745  14.5745

          k = 0.5556-0.1111 0.5556 (   175 PWs)   bands (ev):

     9.5436   9.5436  10.6518  10.6518  11.3784  11.3784  12.4534  12.4534
    13.8846  13.8846

          k = 0.4444 0.0000 0.4444 (   174 PWs)   bands (ev):

     9.0978   9.0978  10.5519  10.5519  11.1163  11.1163  12.4906  12.4906
    13.1459  13.1459

          k = 0.0000 0.6667 0.0000 (   174 PWs)   bands (ev):

     8.8008   8.8008   9.5743   9.5743  12.4805  12.4805  13.7702  13.7702
    13.8113  13.8113

          k =-0.1111 0.7778-0.1111 (   177 PWs)   bands (ev):

     9.0008   9.0008   9.4792   9.4792  12.7094  12.7094  13.8351  13.8351
    14.7391  14.7391

          k = 0.7778-0.1111 0.7778 (   177 PWs)   bands (ev):

     9.2750   9.2750   9.8694   9.8694  12.2455  12.2455  13.5138  13.5138
    14.7634  14.7634

          k = 0.6667-0.0000 0.6667 (   176 PWs)   bands (ev):

     9.6713   9.6713  10.4134  10.4134  11.5224  11.5224  13.0377  13.0377
    14.2446  14.2446

          k = 0.0000 0.8889 0.0000 (   182 PWs)   bands (ev):

     8.7159   8.7159   9.1494   9.1494  14.2948  14.2948  14.3991  14.3991
    15.4199  15.4199

          k = 0.8889 0.0000 0.8889 (   178 PWs)   bands (ev):

     8.8591   8.8591   9.2665   9.2665  13.6737  13.6737  14.2149  14.2149
    15.1345  15.1345

          k =-0.2222 0.4444 0.0000 (   166 PWs)   bands (ev):

     8.0795   8.0795  10.3915  10.3915  11.2905  11.2905  12.7972  12.7972
    12.9471  12.9471

          k =-0.3333 0.5556-0.1111 (   177 PWs)   bands (ev):

     9.0921   9.0921  10.5794  10.5794  11.0048  11.0048  12.6245  12.6245
    13.7360  13.7360

          k = 0.5556-0.3333 0.7778 (   171 PWs)   bands (ev):

     9.2790   9.2790  10.6317  10.6317  11.5979  11.5979  12.4993  12.4993
    14.4230  14.4230

          k =-0.2222 0.6667 0.0000 (   178 PWs)   bands (ev):

     9.2336   9.2336   9.8291   9.8291  11.5065  11.5065  13.6322  13.6322
    13.8655  13.8655

          k = 0.6667-0.2222 0.8889 (   180 PWs)   bands (ev):

     9.5731   9.5731  10.1119  10.1119  11.3718  11.3718  13.3414  13.3414
    14.5490  14.5490

          k = 0.5556-0.1111 0.7778 (   179 PWs)   bands (ev):

     9.8694   9.8694  10.3172  10.3172  11.2549  11.2549  13.0012  13.0012
    14.4758  14.4758

          k = 0.4444 0.0000 0.6667 (   175 PWs)   bands (ev):

    10.0597  10.0597  10.3909  10.3909  10.7154  10.7154  12.9956  12.9956
    13.9130  13.9130

          k = 0.7778-0.1111 1.0000 (   179 PWs)   bands (ev):

     9.1125   9.1125   9.4690   9.4690  12.7378  12.7378  14.0472  14.0472
    14.9448  14.9448

          k = 0.6667-0.0000 0.8889 (   177 PWs)   bands (ev):

     9.4654   9.4654   9.9198   9.9198  11.9827  11.9827  13.4984  13.4984
    14.8947  14.8947

          k = 0.5556-0.1111 1.0000 (   181 PWs)   bands (ev):

     9.8532   9.8532  10.3833  10.3833  11.0493  11.0493  13.2077  13.2077
    14.8574  14.8574

     highest occupied level (ev):    15.4199

!    total energy              =     -69.44845780 Ry
     estimated scf accuracy    <          1.6E-09 Ry

     The total energy is the sum of the following terms:
     one-electron contribution =      13.65556178 Ry
     hartree contribution      =       4.54794880 Ry
     xc contribution           =     -28.41602424 Ry
     ewald contribution        =     -59.23594413 Ry

     convergence has been achieved in   8 iterations

     negative rho (up, down):  3.088E-04 0.000E+00

     Forces acting on atoms (cartesian axes, Ry/au):

     atom    1 type  1   force =     0.00000000    0.00000000    0.00000000

     Total force =     0.000000     Total SCF correction =     0.000000


     Computing stress (Cartesian axis) and pressure


     negative rho (up, down):  3.088E-04 0.000E+00
          total   stress  (Ry/bohr**3)                   (kbar)     P=     -218.56
  -0.00148574  -0.00000000   0.00000000         -218.56       -0.00        0.00
  -0.00000000  -0.00148574  -0.00000000           -0.00     -218.56       -0.00
   0.00000000  -0.00000000  -0.00148574            0.00       -0.00     -218.56


     Writing all to output data dir ./platinum.save/ :
     XML data file, charge density, pseudopotentials, collected wavefunctions

     init_run     :      0.24s CPU      0.28s WALL (       1 calls)
     electrons    :      2.08s CPU      2.31s WALL (       1 calls)
     forces       :      0.04s CPU      0.04s WALL (       1 calls)
     stress       :      0.18s CPU      0.18s WALL (       1 calls)

     Called by init_run:
     wfcinit      :      0.07s CPU      0.08s WALL (       1 calls)
     potinit      :      0.01s CPU      0.01s WALL (       1 calls)
     hinit0       :      0.16s CPU      0.18s WALL (       1 calls)

     Called by electrons:
     c_bands      :      1.63s CPU      1.84s WALL (       9 calls)
     sum_band     :      0.35s CPU      0.36s WALL (       9 calls)
     v_of_rho     :      0.00s CPU      0.00s WALL (       9 calls)
     newd         :      0.11s CPU      0.11s WALL (       9 calls)
     mix_rho      :      0.00s CPU      0.00s WALL (       9 calls)

     Called by c_bands:
     init_us_2    :      0.03s CPU      0.03s WALL (     735 calls)
     cegterg      :      1.52s CPU      1.72s WALL (     315 calls)

     Called by *egterg:
     cdiaghg      :      0.10s CPU      0.11s WALL (    1495 calls)
     h_psi        :      0.87s CPU      1.00s WALL (    1565 calls)
     s_psi        :      0.15s CPU      0.17s WALL (    1565 calls)
     g_psi        :      0.01s CPU      0.02s WALL (    1215 calls)

     Called by h_psi:
     h_psi:calbec :      0.12s CPU      0.13s WALL (    1565 calls)
     vloc_psi     :      0.59s CPU      0.68s WALL (    1565 calls)
     add_vuspsi   :      0.14s CPU      0.16s WALL (    1565 calls)

     General routines
     calbec       :      0.16s CPU      0.18s WALL (    2055 calls)
     fft          :      0.01s CPU      0.03s WALL (      99 calls)
     ffts         :      0.00s CPU      0.00s WALL (      36 calls)
     fftw         :      0.45s CPU      0.51s WALL (   50492 calls)

     Parallel routines

     PWSCF        :      2.65s CPU      2.92s WALL


   This run was terminated on:  22: 2:22   4Nov2024            

=------------------------------------------------------------------------------=
   JOB DONE.
=------------------------------------------------------------------------------=
