
     Program PWSCF v.7.3.1 starts on  4Nov2024 at 22: 0:49 

     This program is part of the open-source Quantum ESPRESSO suite
     for quantum simulation of materials; please cite
         "P. Giannozzi et al., J. Phys.:Condens. Matter 21 395502 (2009);
         "P. Giannozzi et al., J. Phys.:Condens. Matter 29 465901 (2017);
         "P. Giannozzi et al., J. Chem. Phys. 152 154105 (2020);
          URL http://www.quantum-espresso.org", 
     in publications or presentations arising from this work. More details at
     http://www.quantum-espresso.org/quote

     Parallel version (MPI), running on     1 processors

     MPI processes distributed on     1 nodes
     11875 MiB available memory on the printing compute node when the environment starts

     Waiting for input...
     Reading input from standard input

     Current dimensions of program PWSCF are:
     Max number of different atomic species (ntypx) = 10
     Max number of k-points (npk) =  40000
     Max angular momentum in pseudopotentials (lmaxx) =  4

     Subspace diagonalization in iterative solution of the eigenvalue problem:
     a serial algorithm will be used


     G-vector sticks info
     --------------------
     sticks:   dense  smooth     PW     G-vecs:    dense   smooth      PW
     Sum         151     151     55                 1243     1243     283

     Using Slab Decomposition



     bravais-lattice index     =            2
     lattice parameter (alat)  =       7.3400  a.u.
     unit-cell volume          =      98.8617 (a.u.)^3
     number of atoms/cell      =            1
     number of atomic types    =            1
     number of electrons       =        10.00
     number of Kohn-Sham states=           10
     kinetic-energy cutoff     =      20.0000  Ry
     charge density cutoff     =      80.0000  Ry
     scf convergence threshold =      1.0E-08
     mixing beta               =       0.7000
     number of iterations used =            8  plain     mixing
     Exchange-correlation=  SLA  PZ   NOGX NOGC
                           (   1   1   0   0   0   0   0)
     Non magnetic calculation with spin-orbit


     celldm(1)=   7.340000  celldm(2)=   0.000000  celldm(3)=   0.000000
     celldm(4)=   0.000000  celldm(5)=   0.000000  celldm(6)=   0.000000

     crystal axes: (cart. coord. in units of alat)
               a(1) = (  -0.500000   0.000000   0.500000 )  
               a(2) = (   0.000000   0.500000   0.500000 )  
               a(3) = (  -0.500000   0.500000   0.000000 )  

     reciprocal axes: (cart. coord. in units 2 pi/alat)
               b(1) = ( -1.000000 -1.000000  1.000000 )  
               b(2) = (  1.000000  1.000000  1.000000 )  
               b(3) = ( -1.000000  1.000000 -1.000000 )  


     PseudoPot. # 1 for Pt read from file:
     /home/dashlander/Desktop/Sem7/CPD/Assignment_3/pseudo/Pt.rel-pz-n-rrkjus.UPF
     MD5 check sum: 4baafe8ec1942611396c7a5466f52249
     Pseudo is Ultrasoft + core correction, Zval = 10.0
     Generated by new atomic code, or converted to UPF format
     Using radial grid of 1277 points,  6 beta functions with: 
                l(1) =   2
                l(2) =   2
                l(3) =   2
                l(4) =   2
                l(5) =   1
                l(6) =   1
     Q(r) pseudized with 0 coefficients 


     atomic species   valence    mass     pseudopotential
     Pt               10.00   195.08400     Pt( 1.00)

     48 Sym. Ops., with inversion, found



   Cartesian axes

     site n.     atom                  positions (alat units)
         1        Pt     tau(   1) = (   0.0000000   0.0000000   0.0000000  )

     number of k points=    35
                       cart. coord. in units 2pi/alat
        k(    1) = (   0.0000000   0.0000000   0.0000000), wk =   0.0013717
        k(    2) = (  -0.1111111   0.1111111  -0.1111111), wk =   0.0109739
        k(    3) = (  -0.2222222   0.2222222  -0.2222222), wk =   0.0109739
        k(    4) = (  -0.3333333   0.3333333  -0.3333333), wk =   0.0109739
        k(    5) = (  -0.4444444   0.4444444  -0.4444444), wk =   0.0109739
        k(    6) = (   0.0000000   0.2222222   0.0000000), wk =   0.0082305
        k(    7) = (  -0.1111111   0.3333333  -0.1111111), wk =   0.0329218
        k(    8) = (  -0.2222222   0.4444444  -0.2222222), wk =   0.0329218
        k(    9) = (  -0.3333333   0.5555556  -0.3333333), wk =   0.0329218
        k(   10) = (   0.5555556  -0.3333333   0.5555556), wk =   0.0329218
        k(   11) = (   0.4444444  -0.2222222   0.4444444), wk =   0.0329218
        k(   12) = (   0.3333333  -0.1111111   0.3333333), wk =   0.0329218
        k(   13) = (   0.2222222  -0.0000000   0.2222222), wk =   0.0164609
        k(   14) = (   0.0000000   0.4444444   0.0000000), wk =   0.0082305
        k(   15) = (  -0.1111111   0.5555556  -0.1111111), wk =   0.0329218
        k(   16) = (  -0.2222222   0.6666667  -0.2222222), wk =   0.0329218
        k(   17) = (   0.6666667  -0.2222222   0.6666667), wk =   0.0329218
        k(   18) = (   0.5555556  -0.1111111   0.5555556), wk =   0.0329218
        k(   19) = (   0.4444444   0.0000000   0.4444444), wk =   0.0164609
        k(   20) = (   0.0000000   0.6666667   0.0000000), wk =   0.0082305
        k(   21) = (  -0.1111111   0.7777778  -0.1111111), wk =   0.0329218
        k(   22) = (   0.7777778  -0.1111111   0.7777778), wk =   0.0329218
        k(   23) = (   0.6666667  -0.0000000   0.6666667), wk =   0.0164609
        k(   24) = (   0.0000000   0.8888889   0.0000000), wk =   0.0082305
        k(   25) = (   0.8888889   0.0000000   0.8888889), wk =   0.0164609
        k(   26) = (  -0.2222222   0.4444444   0.0000000), wk =   0.0329218
        k(   27) = (  -0.3333333   0.5555556  -0.1111111), wk =   0.0658436
        k(   28) = (   0.5555556  -0.3333333   0.7777778), wk =   0.0658436
        k(   29) = (  -0.2222222   0.6666667   0.0000000), wk =   0.0329218
        k(   30) = (   0.6666667  -0.2222222   0.8888889), wk =   0.0658436
        k(   31) = (   0.5555556  -0.1111111   0.7777778), wk =   0.0658436
        k(   32) = (   0.4444444   0.0000000   0.6666667), wk =   0.0329218
        k(   33) = (   0.7777778  -0.1111111   1.0000000), wk =   0.0329218
        k(   34) = (   0.6666667  -0.0000000   0.8888889), wk =   0.0329218
        k(   35) = (   0.5555556  -0.1111111   1.0000000), wk =   0.0329218

     Dense  grid:     1243 G-vectors     FFT dimensions: (  15,  15,  15)

     Estimated max dynamical RAM per process >      11.97 MB

     Check: negative core charge=   -0.000024

     Initial potential from superposition of free atoms

     starting charge       9.9999, renormalised to      10.0000

     negative rho (up, down):  8.433E-05 0.000E+00
     Starting wfcs are   12 randomized atomic wfcs

     total cpu time spent up to now is        0.4 secs

     Self-consistent Calculation

     iteration #  1     ecut=    20.00 Ry     beta= 0.70
     Davidson diagonalization with overlap
     ethr =  1.00E-02,  avg # of iterations =  2.2

     Threshold (ethr) on eigenvalues was too large:
     Diagonalizing with lowered threshold

     Davidson diagonalization with overlap
     ethr =  1.54E-05,  avg # of iterations =  8.0

     negative rho (up, down):  1.757E-04 0.000E+00

     total cpu time spent up to now is        0.9 secs

     total energy              =     -69.45319838 Ry
     estimated scf accuracy    <       0.00439809 Ry

     iteration #  2     ecut=    20.00 Ry     beta= 0.70
     Davidson diagonalization with overlap
     ethr =  4.40E-05,  avg # of iterations =  2.1

     negative rho (up, down):  2.006E-04 0.000E+00

     total cpu time spent up to now is        1.1 secs

     total energy              =     -69.45437034 Ry
     estimated scf accuracy    <       0.00049539 Ry

     iteration #  3     ecut=    20.00 Ry     beta= 0.70
     Davidson diagonalization with overlap
     ethr =  4.95E-06,  avg # of iterations =  2.0

     negative rho (up, down):  2.192E-04 0.000E+00

     total cpu time spent up to now is        1.3 secs

     total energy              =     -69.45444807 Ry
     estimated scf accuracy    <       0.00001504 Ry

     iteration #  4     ecut=    20.00 Ry     beta= 0.70
     Davidson diagonalization with overlap
     ethr =  1.50E-07,  avg # of iterations =  6.4

     negative rho (up, down):  2.194E-04 0.000E+00

     total cpu time spent up to now is        1.6 secs

     total energy              =     -69.45446552 Ry
     estimated scf accuracy    <       0.00000297 Ry

     iteration #  5     ecut=    20.00 Ry     beta= 0.70
     Davidson diagonalization with overlap
     ethr =  2.97E-08,  avg # of iterations =  3.7

     negative rho (up, down):  2.198E-04 0.000E+00

     total cpu time spent up to now is        1.8 secs

     total energy              =     -69.45446629 Ry
     estimated scf accuracy    <       0.00000020 Ry

     iteration #  6     ecut=    20.00 Ry     beta= 0.70
     Davidson diagonalization with overlap
     ethr =  2.00E-09,  avg # of iterations =  5.1

     negative rho (up, down):  2.199E-04 0.000E+00

     total cpu time spent up to now is        2.1 secs

     End of self-consistent calculation

          k = 0.0000 0.0000 0.0000 (   169 PWs)   bands (ev):

     7.7463   7.7463  14.0140  14.0140  14.0140  14.0140  15.0010  15.0010
    16.8832  16.8832

          k =-0.1111 0.1111-0.1111 (   153 PWs)   bands (ev):

     8.2450   8.2450  13.9555  13.9555  14.1278  14.1278  15.1175  15.1175
    16.7119  16.7119

          k =-0.2222 0.2222-0.2222 (   150 PWs)   bands (ev):

     9.5045   9.5045  13.8474  13.8474  14.2201  14.2201  15.4084  15.4084
    16.6230  16.6230

          k =-0.3333 0.3333-0.3333 (   153 PWs)   bands (ev):

    10.5405  10.5405  14.0450  14.0450  14.7615  14.7615  15.1667  15.1667
    17.4100  17.4100

          k =-0.4444 0.4444-0.4444 (   147 PWs)   bands (ev):

    10.7222  10.7222  13.8471  13.8471  14.8584  14.8584  17.0041  17.0041
    18.1564  18.1564

          k = 0.0000 0.2222 0.0000 (   153 PWs)   bands (ev):

     8.4132   8.4132  13.7809  13.7809  14.2939  14.2939  15.2024  15.2024
    16.4762  16.4762

          k =-0.1111 0.3333-0.1111 (   152 PWs)   bands (ev):

     9.4513   9.4513  13.4820  13.4820  14.4438  14.4438  15.5724  15.5724
    16.3008  16.3008

          k =-0.2222 0.4444-0.2222 (   149 PWs)   bands (ev):

    10.7066  10.7066  13.6720  13.6720  14.1953  14.1953  15.4238  15.4238
    17.2601  17.2601

          k =-0.3333 0.5556-0.3333 (   149 PWs)   bands (ev):

    11.0961  11.0961  13.8308  13.8308  14.8616  14.8616  15.3892  15.3892
    18.4275  18.4275

          k = 0.5556-0.3333 0.5556 (   150 PWs)   bands (ev):

    11.1182  11.1182  13.7510  13.7510  14.8727  14.8727  16.0900  16.0900
    18.3591  18.3591

          k = 0.4444-0.2222 0.4444 (   151 PWs)   bands (ev):

    11.0917  11.0917  13.9256  13.9256  14.7779  14.7779  15.1377  15.1377
    17.4505  17.4505

          k = 0.3333-0.1111 0.3333 (   149 PWs)   bands (ev):

    10.3686  10.3686  13.6018  13.6018  14.2975  14.2975  15.5042  15.5042
    16.4100  16.4100

          k = 0.2222-0.0000 0.2222 (   157 PWs)   bands (ev):

     9.0216   9.0216  13.7163  13.7163  14.3123  14.3123  15.3862  15.3862
    16.3430  16.3430

          k = 0.0000 0.4444 0.0000 (   149 PWs)   bands (ev):

    10.1115  10.1115  12.9568  12.9568  14.7391  14.7391  16.1297  16.1297
    16.1583  16.1583

          k =-0.1111 0.5556-0.1111 (   149 PWs)   bands (ev):

    11.1239  11.1239  12.6443  12.6443  14.5462  14.5462  16.3073  16.3073
    17.2806  17.2806

          k =-0.2222 0.6667-0.2222 (   149 PWs)   bands (ev):

    11.6776  11.6776  13.0228  13.0228  14.3175  14.3175  16.0701  16.0701
    18.5572  18.5572

          k = 0.6667-0.2222 0.6667 (   153 PWs)   bands (ev):

    11.8857  11.8857  13.2797  13.2797  14.6428  14.6428  15.8196  15.8196
    18.4347  18.4347

          k = 0.5556-0.1111 0.5556 (   148 PWs)   bands (ev):

    12.1386  12.1386  13.4725  13.4725  14.2677  14.2677  15.6357  15.6357
    17.4889  17.4889

          k = 0.4444 0.0000 0.4444 (   144 PWs)   bands (ev):

    11.7309  11.7309  13.3387  13.3387  14.0410  14.0410  15.6833  15.6833
    16.4840  16.4840

          k = 0.0000 0.6667 0.0000 (   153 PWs)   bands (ev):

    11.2177  11.2177  12.0553  12.0553  15.8202  15.8202  17.3728  17.3728
    17.4380  17.4380

          k =-0.1111 0.7778-0.1111 (   143 PWs)   bands (ev):

    11.3721  11.3721  11.9373  11.9373  16.0279  16.0279  17.4643  17.4643
    18.6431  18.6431

          k = 0.7778-0.1111 0.7778 (   148 PWs)   bands (ev):

    11.6848  11.6848  12.4326  12.4326  15.4022  15.4022  17.0407  17.0407
    18.6566  18.6566

          k = 0.6667-0.0000 0.6667 (   142 PWs)   bands (ev):

    12.2050  12.2050  13.1448  13.1448  14.4489  14.4489  16.4296  16.4296
    17.9526  17.9526

          k = 0.0000 0.8889 0.0000 (   150 PWs)   bands (ev):

    10.9856  10.9856  11.5153  11.5153  18.1649  18.1649  18.2893  18.2893
    19.2579  19.2579

          k = 0.8889 0.0000 0.8889 (   148 PWs)   bands (ev):

    11.1506  11.1506  11.6678  11.6678  17.2191  17.2191  18.0243  18.0243
    19.0715  19.0715

          k =-0.2222 0.4444 0.0000 (   150 PWs)   bands (ev):

    10.5973  10.5973  13.1217  13.1217  14.3472  14.3472  16.0269  16.0269
    16.2719  16.2719

          k =-0.3333 0.5556-0.1111 (   149 PWs)   bands (ev):

    11.6599  11.6599  13.3805  13.3805  13.8837  13.8837  15.8328  15.8328
    17.3056  17.3056

          k = 0.5556-0.3333 0.7778 (   148 PWs)   bands (ev):

    11.7977  11.7977  13.4209  13.4209  14.5945  14.5945  15.6288  15.6288
    18.2304  18.2304

          k =-0.2222 0.6667 0.0000 (   148 PWs)   bands (ev):

    11.7446  11.7446  12.3864  12.3864  14.5415  14.5415  17.1864  17.1864
    17.4742  17.4742

          k = 0.6667-0.2222 0.8889 (   146 PWs)   bands (ev):

    12.0881  12.0881  12.7406  12.7406  14.3251  14.3251  16.7776  16.7776
    18.3919  18.3919

          k = 0.5556-0.1111 0.7778 (   149 PWs)   bands (ev):

    12.4714  12.4714  13.0011  13.0011  14.1409  14.1409  16.3252  16.3252
    18.2912  18.2912

          k = 0.4444 0.0000 0.6667 (   149 PWs)   bands (ev):

    12.8038  12.8038  13.1435  13.1435  13.3940  13.3940  16.3350  16.3350
    17.5315  17.5315

          k = 0.7778-0.1111 1.0000 (   146 PWs)   bands (ev):

    11.4718  11.4718  11.9287  11.9287  16.0309  16.0309  17.7559  17.7559
    18.8745  18.8745

          k = 0.6667-0.0000 0.8889 (   149 PWs)   bands (ev):

    11.9061  11.9061  12.5057  12.5057  15.0637  15.0637  16.9986  16.9986
    18.8370  18.8370

          k = 0.5556-0.1111 1.0000 (   151 PWs)   bands (ev):

    12.3913  12.3913  13.1244  13.1244  13.8709  13.8709  16.5874  16.5874
    18.8056  18.8056

     highest occupied level (ev):    19.2579

!    total energy              =     -69.45446642 Ry
     estimated scf accuracy    <          1.8E-09 Ry

     The total energy is the sum of the following terms:
     one-electron contribution =      17.99057262 Ry
     hartree contribution      =       3.60825869 Ry
     xc contribution           =     -28.58923676 Ry
     ewald contribution        =     -62.46406097 Ry

     convergence has been achieved in   6 iterations

     negative rho (up, down):  2.199E-04 0.000E+00

     Forces acting on atoms (cartesian axes, Ry/au):

     atom    1 type  1   force =     0.00000000    0.00000000    0.00000000

     Total force =     0.000000     Total SCF correction =     0.000000


     Computing stress (Cartesian axis) and pressure


     negative rho (up, down):  2.199E-04 0.000E+00
          total   stress  (Ry/bohr**3)                   (kbar)     P=      163.09
   0.00110868  -0.00000000   0.00000000          163.09       -0.00        0.00
  -0.00000000   0.00110868   0.00000000           -0.00      163.09        0.00
   0.00000000   0.00000000   0.00110868            0.00        0.00      163.09


     Writing all to output data dir ./platinum.save/ :
     XML data file, charge density, pseudopotentials, collected wavefunctions

     init_run     :      0.23s CPU      0.27s WALL (       1 calls)
     electrons    :      1.49s CPU      1.69s WALL (       1 calls)
     forces       :      0.04s CPU      0.04s WALL (       1 calls)
     stress       :      0.15s CPU      0.15s WALL (       1 calls)

     Called by init_run:
     wfcinit      :      0.05s CPU      0.07s WALL (       1 calls)
     potinit      :      0.01s CPU      0.01s WALL (       1 calls)
     hinit0       :      0.16s CPU      0.17s WALL (       1 calls)

     Called by electrons:
     c_bands      :      1.18s CPU      1.37s WALL (       7 calls)
     sum_band     :      0.24s CPU      0.26s WALL (       7 calls)
     v_of_rho     :      0.00s CPU      0.00s WALL (       7 calls)
     newd         :      0.08s CPU      0.08s WALL (       7 calls)
     mix_rho      :      0.00s CPU      0.00s WALL (       7 calls)

     Called by c_bands:
     init_us_2    :      0.02s CPU      0.02s WALL (     595 calls)
     cegterg      :      1.11s CPU      1.29s WALL (     245 calls)

     Called by *egterg:
     cdiaghg      :      0.07s CPU      0.09s WALL (    1242 calls)
     h_psi        :      0.65s CPU      0.77s WALL (    1312 calls)
     s_psi        :      0.10s CPU      0.12s WALL (    1312 calls)
     g_psi        :      0.01s CPU      0.01s WALL (    1032 calls)

     Called by h_psi:
     h_psi:calbec :      0.08s CPU      0.09s WALL (    1312 calls)
     vloc_psi     :      0.46s CPU      0.55s WALL (    1312 calls)
     add_vuspsi   :      0.10s CPU      0.12s WALL (    1312 calls)

     General routines
     calbec       :      0.11s CPU      0.13s WALL (    1732 calls)
     fft          :      0.03s CPU      0.03s WALL (      79 calls)
     ffts         :      0.00s CPU      0.00s WALL (      28 calls)
     fftw         :      0.34s CPU      0.41s WALL (   42044 calls)

     Parallel routines

     PWSCF        :      2.01s CPU      2.25s WALL


   This run was terminated on:  22: 0:51   4Nov2024            

=------------------------------------------------------------------------------=
   JOB DONE.
=------------------------------------------------------------------------------=
