
     Program PWSCF v.7.3.1 starts on  4Nov2024 at 22: 3:12 

     This program is part of the open-source Quantum ESPRESSO suite
     for quantum simulation of materials; please cite
         "P. Giannozzi et al., J. Phys.:Condens. Matter 21 395502 (2009);
         "P. Giannozzi et al., J. Phys.:Condens. Matter 29 465901 (2017);
         "P. Giannozzi et al., J. Chem. Phys. 152 154105 (2020);
          URL http://www.quantum-espresso.org", 
     in publications or presentations arising from this work. More details at
     http://www.quantum-espresso.org/quote

     Parallel version (MPI), running on     1 processors

     MPI processes distributed on     1 nodes
     11790 MiB available memory on the printing compute node when the environment starts

     Waiting for input...
     Reading input from standard input

     Current dimensions of program PWSCF are:
     Max number of different atomic species (ntypx) = 10
     Max number of k-points (npk) =  40000
     Max angular momentum in pseudopotentials (lmaxx) =  4

     Subspace diagonalization in iterative solution of the eigenvalue problem:
     a serial algorithm will be used


     G-vector sticks info
     --------------------
     sticks:   dense  smooth     PW     G-vecs:    dense   smooth      PW
     Sum         169     169     61                 1471     1471     339

     Using Slab Decomposition



     bravais-lattice index     =            2
     lattice parameter (alat)  =       8.0000  a.u.
     unit-cell volume          =     128.0000 (a.u.)^3
     number of atoms/cell      =            1
     number of atomic types    =            1
     number of electrons       =        10.00
     number of Kohn-Sham states=           10
     kinetic-energy cutoff     =      20.0000  Ry
     charge density cutoff     =      80.0000  Ry
     scf convergence threshold =      1.0E-08
     mixing beta               =       0.7000
     number of iterations used =            8  plain     mixing
     Exchange-correlation=  SLA  PZ   NOGX NOGC
                           (   1   1   0   0   0   0   0)
     Non magnetic calculation with spin-orbit


     celldm(1)=   8.000000  celldm(2)=   0.000000  celldm(3)=   0.000000
     celldm(4)=   0.000000  celldm(5)=   0.000000  celldm(6)=   0.000000

     crystal axes: (cart. coord. in units of alat)
               a(1) = (  -0.500000   0.000000   0.500000 )  
               a(2) = (   0.000000   0.500000   0.500000 )  
               a(3) = (  -0.500000   0.500000   0.000000 )  

     reciprocal axes: (cart. coord. in units 2 pi/alat)
               b(1) = ( -1.000000 -1.000000  1.000000 )  
               b(2) = (  1.000000  1.000000  1.000000 )  
               b(3) = ( -1.000000  1.000000 -1.000000 )  


     PseudoPot. # 1 for Pt read from file:
     /home/dashlander/Desktop/Sem7/CPD/Assignment_3/pseudo/Pt.rel-pz-n-rrkjus.UPF
     MD5 check sum: 4baafe8ec1942611396c7a5466f52249
     Pseudo is Ultrasoft + core correction, Zval = 10.0
     Generated by new atomic code, or converted to UPF format
     Using radial grid of 1277 points,  6 beta functions with: 
                l(1) =   2
                l(2) =   2
                l(3) =   2
                l(4) =   2
                l(5) =   1
                l(6) =   1
     Q(r) pseudized with 0 coefficients 


     atomic species   valence    mass     pseudopotential
     Pt               10.00   195.08400     Pt( 1.00)

     48 Sym. Ops., with inversion, found



   Cartesian axes

     site n.     atom                  positions (alat units)
         1        Pt     tau(   1) = (   0.0000000   0.0000000   0.0000000  )

     number of k points=    35
                       cart. coord. in units 2pi/alat
        k(    1) = (   0.0000000   0.0000000   0.0000000), wk =   0.0013717
        k(    2) = (  -0.1111111   0.1111111  -0.1111111), wk =   0.0109739
        k(    3) = (  -0.2222222   0.2222222  -0.2222222), wk =   0.0109739
        k(    4) = (  -0.3333333   0.3333333  -0.3333333), wk =   0.0109739
        k(    5) = (  -0.4444444   0.4444444  -0.4444444), wk =   0.0109739
        k(    6) = (   0.0000000   0.2222222   0.0000000), wk =   0.0082305
        k(    7) = (  -0.1111111   0.3333333  -0.1111111), wk =   0.0329218
        k(    8) = (  -0.2222222   0.4444444  -0.2222222), wk =   0.0329218
        k(    9) = (  -0.3333333   0.5555556  -0.3333333), wk =   0.0329218
        k(   10) = (   0.5555556  -0.3333333   0.5555556), wk =   0.0329218
        k(   11) = (   0.4444444  -0.2222222   0.4444444), wk =   0.0329218
        k(   12) = (   0.3333333  -0.1111111   0.3333333), wk =   0.0329218
        k(   13) = (   0.2222222  -0.0000000   0.2222222), wk =   0.0164609
        k(   14) = (   0.0000000   0.4444444   0.0000000), wk =   0.0082305
        k(   15) = (  -0.1111111   0.5555556  -0.1111111), wk =   0.0329218
        k(   16) = (  -0.2222222   0.6666667  -0.2222222), wk =   0.0329218
        k(   17) = (   0.6666667  -0.2222222   0.6666667), wk =   0.0329218
        k(   18) = (   0.5555556  -0.1111111   0.5555556), wk =   0.0329218
        k(   19) = (   0.4444444   0.0000000   0.4444444), wk =   0.0164609
        k(   20) = (   0.0000000   0.6666667   0.0000000), wk =   0.0082305
        k(   21) = (  -0.1111111   0.7777778  -0.1111111), wk =   0.0329218
        k(   22) = (   0.7777778  -0.1111111   0.7777778), wk =   0.0329218
        k(   23) = (   0.6666667  -0.0000000   0.6666667), wk =   0.0164609
        k(   24) = (   0.0000000   0.8888889   0.0000000), wk =   0.0082305
        k(   25) = (   0.8888889   0.0000000   0.8888889), wk =   0.0164609
        k(   26) = (  -0.2222222   0.4444444   0.0000000), wk =   0.0329218
        k(   27) = (  -0.3333333   0.5555556  -0.1111111), wk =   0.0658436
        k(   28) = (   0.5555556  -0.3333333   0.7777778), wk =   0.0658436
        k(   29) = (  -0.2222222   0.6666667   0.0000000), wk =   0.0329218
        k(   30) = (   0.6666667  -0.2222222   0.8888889), wk =   0.0658436
        k(   31) = (   0.5555556  -0.1111111   0.7777778), wk =   0.0658436
        k(   32) = (   0.4444444   0.0000000   0.6666667), wk =   0.0329218
        k(   33) = (   0.7777778  -0.1111111   1.0000000), wk =   0.0329218
        k(   34) = (   0.6666667  -0.0000000   0.8888889), wk =   0.0329218
        k(   35) = (   0.5555556  -0.1111111   1.0000000), wk =   0.0329218

     Dense  grid:     1471 G-vectors     FFT dimensions: (  18,  18,  18)

     Estimated max dynamical RAM per process >      14.56 MB

     Check: negative core charge=   -0.000083

     Initial potential from superposition of free atoms

     starting charge       9.9999, renormalised to      10.0000

     negative rho (up, down):  1.977E-04 0.000E+00
     Starting wfcs are   12 randomized atomic wfcs

     total cpu time spent up to now is        0.7 secs

     Self-consistent Calculation

     iteration #  1     ecut=    20.00 Ry     beta= 0.70
     Davidson diagonalization with overlap
     ethr =  1.00E-02,  avg # of iterations =  2.0

     Threshold (ethr) on eigenvalues was too large:
     Diagonalizing with lowered threshold

     Davidson diagonalization with overlap
     ethr =  6.23E-05,  avg # of iterations =  5.9

     negative rho (up, down):  2.423E-04 0.000E+00

     total cpu time spent up to now is        1.5 secs

     total energy              =     -69.42603615 Ry
     estimated scf accuracy    <       0.00118909 Ry

     iteration #  2     ecut=    20.00 Ry     beta= 0.70
     Davidson diagonalization with overlap
     ethr =  1.19E-05,  avg # of iterations =  2.5

     negative rho (up, down):  2.569E-04 0.000E+00

     total cpu time spent up to now is        1.8 secs

     total energy              =     -69.42627987 Ry
     estimated scf accuracy    <       0.00008528 Ry

     iteration #  3     ecut=    20.00 Ry     beta= 0.70
     Davidson diagonalization with overlap
     ethr =  8.53E-07,  avg # of iterations =  4.2

     negative rho (up, down):  2.630E-04 0.000E+00

     total cpu time spent up to now is        2.1 secs

     total energy              =     -69.42631382 Ry
     estimated scf accuracy    <       0.00000639 Ry

     iteration #  4     ecut=    20.00 Ry     beta= 0.70
     Davidson diagonalization with overlap
     ethr =  6.39E-08,  avg # of iterations =  4.9

     negative rho (up, down):  2.630E-04 0.000E+00

     total cpu time spent up to now is        2.5 secs

     total energy              =     -69.42631722 Ry
     estimated scf accuracy    <       0.00000001 Ry

     iteration #  5     ecut=    20.00 Ry     beta= 0.70
     Davidson diagonalization with overlap
     c_bands:  2 eigenvalues not converged
     c_bands:  2 eigenvalues not converged
     c_bands:  1 eigenvalues not converged
     c_bands:  1 eigenvalues not converged
     c_bands:  3 eigenvalues not converged
     ethr =  1.06E-10,  avg # of iterations = 11.7

     negative rho (up, down):  2.630E-04 0.000E+00

     total cpu time spent up to now is        3.2 secs

     End of self-consistent calculation

          k = 0.0000 0.0000 0.0000 (   181 PWs)   bands (ev):

     4.4122   4.4122   9.3234   9.3234   9.3234   9.3234  10.3674  10.3674
    11.5298  11.5298

          k =-0.1111 0.1111-0.1111 (   178 PWs)   bands (ev):

     4.8045   4.8045   9.3130   9.3130   9.3834   9.3834  10.4417  10.4417
    11.4113  11.4113

          k =-0.2222 0.2222-0.2222 (   193 PWs)   bands (ev):

     5.8361   5.8361   9.3087   9.3087   9.4308   9.4308  10.6455  10.6455
    11.3027  11.3027

          k =-0.3333 0.3333-0.3333 (   198 PWs)   bands (ev):

     6.8192   6.8192   9.3356   9.3356   9.9966   9.9966  10.4948  10.4948
    11.7963  11.7963

          k =-0.4444 0.4444-0.4444 (   189 PWs)   bands (ev):

     7.0823   7.0823   9.2223   9.2223  10.2578  10.2578  11.8441  11.8441
    12.3772  12.3772

          k = 0.0000 0.2222 0.0000 (   177 PWs)   bands (ev):

     4.9371   4.9371   9.2099   9.2099   9.4887   9.4887  10.4813  10.4813
    11.3105  11.3105

          k =-0.1111 0.3333-0.1111 (   189 PWs)   bands (ev):

     5.7757   5.7757   9.0634   9.0634   9.5847   9.5847  10.7225  10.7225
    11.1725  11.1725

          k =-0.2222 0.4444-0.2222 (   192 PWs)   bands (ev):

     6.8839   6.8839   9.1924   9.1924   9.5101   9.5101  10.6433  10.6433
    11.7110  11.7110

          k =-0.3333 0.5556-0.3333 (   188 PWs)   bands (ev):

     7.3412   7.3412   9.2407   9.2407  10.1722  10.1722  10.6370  10.6370
    12.4434  12.4434

          k = 0.5556-0.3333 0.5556 (   188 PWs)   bands (ev):

     7.3865   7.3865   9.1929   9.1929  10.2378  10.2378  11.1354  11.1354
    12.4284  12.4284

          k = 0.4444-0.2222 0.4444 (   191 PWs)   bands (ev):

     7.2938   7.2938   9.2795   9.2795  10.0761  10.0761  10.4613  10.4613
    11.8701  11.8701

          k = 0.3333-0.1111 0.3333 (   194 PWs)   bands (ev):

     6.5530   6.5530   9.1534   9.1534   9.5236   9.5236  10.7017  10.7017
    11.2164  11.2164

          k = 0.2222-0.0000 0.2222 (   180 PWs)   bands (ev):

     5.4256   5.4256   9.1975   9.1975   9.4957   9.4957  10.6086  10.6086
    11.1964  11.1964

          k = 0.0000 0.4444 0.0000 (   186 PWs)   bands (ev):

     6.3311   6.3311   8.7461   8.7461   9.7802   9.7802  11.0158  11.0158
    11.1445  11.1445

          k =-0.1111 0.5556-0.1111 (   192 PWs)   bands (ev):

     7.2382   7.2382   8.5541   8.5541   9.7544   9.7544  11.1611  11.1611
    11.7214  11.7214

          k =-0.2222 0.6667-0.2222 (   193 PWs)   bands (ev):

     7.8053   7.8053   8.8204   8.8204   9.6833   9.6833  11.0121  11.0121
    12.5139  12.5139

          k = 0.6667-0.2222 0.6667 (   191 PWs)   bands (ev):

     7.9736   7.9736   8.9868   8.9868   9.9901   9.9901  10.8722  10.8722
    12.4726  12.4726

          k = 0.5556-0.1111 0.5556 (   196 PWs)   bands (ev):

     8.1065   8.1065   9.0652   9.0652   9.7929   9.7929  10.6959  10.6959
    11.9120  11.9120

          k = 0.4444 0.0000 0.4444 (   194 PWs)   bands (ev):

     7.6704   7.6704   8.9916   8.9916   9.4822   9.4822  10.7307  10.7307
    11.3075  11.3075

          k = 0.0000 0.6667 0.0000 (   194 PWs)   bands (ev):

     7.4623   7.4623   8.1712   8.1712  10.6475  10.6475  11.7611  11.7611
    11.8701  11.8701

          k =-0.1111 0.7778-0.1111 (   201 PWs)   bands (ev):

     7.6712   7.6712   8.0921   8.0921  10.8883  10.8883  11.8458  11.8458
    12.6229  12.6229

          k = 0.7778-0.1111 0.7778 (   195 PWs)   bands (ev):

     7.9152   7.9152   8.4320   8.4320  10.5144  10.5144  11.5767  11.5767
    12.6473  12.6473

          k = 0.6667-0.0000 0.6667 (   186 PWs)   bands (ev):

     8.2446   8.2446   8.8862   8.8862   9.9214   9.9214  11.1695  11.1695
    12.2209  12.2209

          k = 0.0000 0.8889 0.0000 (   194 PWs)   bands (ev):

     7.4361   7.4361   7.8096   7.8096  12.1847  12.1847  12.2712  12.2712
    13.2477  13.2477

          k = 0.8889 0.0000 0.8889 (   196 PWs)   bands (ev):

     7.5648   7.5648   7.9101   7.9101  11.7196  11.7196  12.1326  12.1326
    13.0001  13.0001

          k =-0.2222 0.4444 0.0000 (   194 PWs)   bands (ev):

     6.7243   6.7243   8.8565   8.8565   9.5843   9.5843  11.0168  11.0168
    11.1139  11.1139

          k =-0.3333 0.5556-0.1111 (   192 PWs)   bands (ev):

     7.6862   7.6862   9.0144   9.0144   9.4016   9.4016  10.8558  10.8558
    11.7796  11.7796

          k = 0.5556-0.3333 0.7778 (   194 PWs)   bands (ev):

     7.8806   7.8806   9.0576   9.0576   9.9550   9.9550  10.7729  10.7729
    12.3441  12.3441

          k =-0.2222 0.6667 0.0000 (   195 PWs)   bands (ev):

     7.8447   7.8447   8.3891   8.3891   9.8319   9.8319  11.6829  11.6829
    11.8904  11.8904

          k = 0.6667-0.2222 0.8889 (   194 PWs)   bands (ev):

     8.1623   8.1623   8.6370   8.6370   9.7503   9.7503  11.4541  11.4541
    12.4545  12.4545

          k = 0.5556-0.1111 0.7778 (   196 PWs)   bands (ev):

     8.4080   8.4080   8.8128   8.8128   9.6723   9.6723  11.1720  11.1720
    12.3957  12.3957

          k = 0.4444 0.0000 0.6667 (   192 PWs)   bands (ev):

     8.5464   8.5464   8.8474   8.8474   9.2289   9.2289  11.1579  11.1579
    11.9337  11.9337

          k = 0.7778-0.1111 1.0000 (   198 PWs)   bands (ev):

     7.7834   7.7834   8.0824   8.0824  10.9289  10.9289  12.0153  12.0153
    12.8124  12.8124

          k = 0.6667-0.0000 0.8889 (   199 PWs)   bands (ev):

     8.0877   8.0877   8.4706   8.4706  10.2908  10.2908  11.5744  11.5744
    12.7524  12.7524

          k = 0.5556-0.1111 1.0000 (   198 PWs)   bands (ev):

     8.4216   8.4216   8.8463   8.8463   9.5039   9.5039  11.3481  11.3481
    12.7104  12.7104

     highest occupied level (ev):    13.2477

!    total energy              =     -69.42631742 Ry
     estimated scf accuracy    <          1.7E-09 Ry

     The total energy is the sum of the following terms:
     one-electron contribution =      11.02524836 Ry
     hartree contribution      =       5.19113829 Ry
     xc contribution           =     -28.33192809 Ry
     ewald contribution        =     -57.31077597 Ry

     convergence has been achieved in   5 iterations

     negative rho (up, down):  2.630E-04 0.000E+00

     Forces acting on atoms (cartesian axes, Ry/au):

     atom    1 type  1   force =     0.00000000    0.00000000    0.00000000

     Total force =     0.000000     Total SCF correction =     0.000000


     Computing stress (Cartesian axis) and pressure


     negative rho (up, down):  2.630E-04 0.000E+00
          total   stress  (Ry/bohr**3)                   (kbar)     P=     -317.52
  -0.00215849   0.00000000   0.00000000         -317.52        0.00        0.00
   0.00000000  -0.00215849  -0.00000000            0.00     -317.52       -0.00
   0.00000000  -0.00000000  -0.00215849            0.00       -0.00     -317.52


     Writing all to output data dir ./platinum.save/ :
     XML data file, charge density, pseudopotentials, collected wavefunctions

     init_run     :      0.38s CPU      0.62s WALL (       1 calls)
     electrons    :      2.28s CPU      2.50s WALL (       1 calls)
     forces       :      0.04s CPU      0.04s WALL (       1 calls)
     stress       :      0.19s CPU      0.19s WALL (       1 calls)

     Called by init_run:
     wfcinit      :      0.14s CPU      0.25s WALL (       1 calls)
     potinit      :      0.01s CPU      0.01s WALL (       1 calls)
     hinit0       :      0.22s CPU      0.34s WALL (       1 calls)

     Called by electrons:
     c_bands      :      1.90s CPU      2.10s WALL (       6 calls)
     sum_band     :      0.31s CPU      0.33s WALL (       6 calls)
     v_of_rho     :      0.00s CPU      0.00s WALL (       6 calls)
     newd         :      0.07s CPU      0.08s WALL (       6 calls)
     mix_rho      :      0.00s CPU      0.00s WALL (       6 calls)

     Called by c_bands:
     init_us_2    :      0.02s CPU      0.02s WALL (     525 calls)
     cegterg      :      1.82s CPU      2.02s WALL (     210 calls)

     Called by *egterg:
     cdiaghg      :      0.08s CPU      0.09s WALL (    1263 calls)
     h_psi        :      1.34s CPU      1.59s WALL (    1333 calls)
     s_psi        :      0.12s CPU      0.14s WALL (    1333 calls)
     g_psi        :      0.01s CPU      0.02s WALL (    1088 calls)

     Called by h_psi:
     h_psi:calbec :      0.10s CPU      0.11s WALL (    1333 calls)
     vloc_psi     :      1.10s CPU      1.32s WALL (    1333 calls)
     add_vuspsi   :      0.12s CPU      0.14s WALL (    1333 calls)

     General routines
     calbec       :      0.14s CPU      0.15s WALL (    1718 calls)
     fft          :      0.09s CPU      0.20s WALL (      69 calls)
     ffts         :      0.00s CPU      0.00s WALL (      24 calls)
     fftw         :      1.00s CPU      1.19s WALL (   39556 calls)

     Parallel routines

     PWSCF        :      3.00s CPU      3.45s WALL


   This run was terminated on:  22: 3:15   4Nov2024            

=------------------------------------------------------------------------------=
   JOB DONE.
=------------------------------------------------------------------------------=
