
     Program PWSCF v.7.3.1 starts on  4Nov2024 at 22: 3: 7 

     This program is part of the open-source Quantum ESPRESSO suite
     for quantum simulation of materials; please cite
         "P. Giannozzi et al., J. Phys.:Condens. Matter 21 395502 (2009);
         "P. Giannozzi et al., J. Phys.:Condens. Matter 29 465901 (2017);
         "P. Giannozzi et al., J. Chem. Phys. 152 154105 (2020);
          URL http://www.quantum-espresso.org", 
     in publications or presentations arising from this work. More details at
     http://www.quantum-espresso.org/quote

     Parallel version (MPI), running on     1 processors

     MPI processes distributed on     1 nodes
     11794 MiB available memory on the printing compute node when the environment starts

     Waiting for input...
     Reading input from standard input

     Current dimensions of program PWSCF are:
     Max number of different atomic species (ntypx) = 10
     Max number of k-points (npk) =  40000
     Max angular momentum in pseudopotentials (lmaxx) =  4

     Subspace diagonalization in iterative solution of the eigenvalue problem:
     a serial algorithm will be used


     G-vector sticks info
     --------------------
     sticks:   dense  smooth     PW     G-vecs:    dense   smooth      PW
     Sum         169     169     61                 1471     1471     339

     Using Slab Decomposition



     bravais-lattice index     =            2
     lattice parameter (alat)  =       7.9800  a.u.
     unit-cell volume          =     127.0424 (a.u.)^3
     number of atoms/cell      =            1
     number of atomic types    =            1
     number of electrons       =        10.00
     number of Kohn-Sham states=           10
     kinetic-energy cutoff     =      20.0000  Ry
     charge density cutoff     =      80.0000  Ry
     scf convergence threshold =      1.0E-08
     mixing beta               =       0.7000
     number of iterations used =            8  plain     mixing
     Exchange-correlation=  SLA  PZ   NOGX NOGC
                           (   1   1   0   0   0   0   0)
     Non magnetic calculation with spin-orbit


     celldm(1)=   7.980000  celldm(2)=   0.000000  celldm(3)=   0.000000
     celldm(4)=   0.000000  celldm(5)=   0.000000  celldm(6)=   0.000000

     crystal axes: (cart. coord. in units of alat)
               a(1) = (  -0.500000   0.000000   0.500000 )  
               a(2) = (   0.000000   0.500000   0.500000 )  
               a(3) = (  -0.500000   0.500000   0.000000 )  

     reciprocal axes: (cart. coord. in units 2 pi/alat)
               b(1) = ( -1.000000 -1.000000  1.000000 )  
               b(2) = (  1.000000  1.000000  1.000000 )  
               b(3) = ( -1.000000  1.000000 -1.000000 )  


     PseudoPot. # 1 for Pt read from file:
     /home/dashlander/Desktop/Sem7/CPD/Assignment_3/pseudo/Pt.rel-pz-n-rrkjus.UPF
     MD5 check sum: 4baafe8ec1942611396c7a5466f52249
     Pseudo is Ultrasoft + core correction, Zval = 10.0
     Generated by new atomic code, or converted to UPF format
     Using radial grid of 1277 points,  6 beta functions with: 
                l(1) =   2
                l(2) =   2
                l(3) =   2
                l(4) =   2
                l(5) =   1
                l(6) =   1
     Q(r) pseudized with 0 coefficients 


     atomic species   valence    mass     pseudopotential
     Pt               10.00   195.08400     Pt( 1.00)

     48 Sym. Ops., with inversion, found



   Cartesian axes

     site n.     atom                  positions (alat units)
         1        Pt     tau(   1) = (   0.0000000   0.0000000   0.0000000  )

     number of k points=    35
                       cart. coord. in units 2pi/alat
        k(    1) = (   0.0000000   0.0000000   0.0000000), wk =   0.0013717
        k(    2) = (  -0.1111111   0.1111111  -0.1111111), wk =   0.0109739
        k(    3) = (  -0.2222222   0.2222222  -0.2222222), wk =   0.0109739
        k(    4) = (  -0.3333333   0.3333333  -0.3333333), wk =   0.0109739
        k(    5) = (  -0.4444444   0.4444444  -0.4444444), wk =   0.0109739
        k(    6) = (   0.0000000   0.2222222   0.0000000), wk =   0.0082305
        k(    7) = (  -0.1111111   0.3333333  -0.1111111), wk =   0.0329218
        k(    8) = (  -0.2222222   0.4444444  -0.2222222), wk =   0.0329218
        k(    9) = (  -0.3333333   0.5555556  -0.3333333), wk =   0.0329218
        k(   10) = (   0.5555556  -0.3333333   0.5555556), wk =   0.0329218
        k(   11) = (   0.4444444  -0.2222222   0.4444444), wk =   0.0329218
        k(   12) = (   0.3333333  -0.1111111   0.3333333), wk =   0.0329218
        k(   13) = (   0.2222222  -0.0000000   0.2222222), wk =   0.0164609
        k(   14) = (   0.0000000   0.4444444   0.0000000), wk =   0.0082305
        k(   15) = (  -0.1111111   0.5555556  -0.1111111), wk =   0.0329218
        k(   16) = (  -0.2222222   0.6666667  -0.2222222), wk =   0.0329218
        k(   17) = (   0.6666667  -0.2222222   0.6666667), wk =   0.0329218
        k(   18) = (   0.5555556  -0.1111111   0.5555556), wk =   0.0329218
        k(   19) = (   0.4444444   0.0000000   0.4444444), wk =   0.0164609
        k(   20) = (   0.0000000   0.6666667   0.0000000), wk =   0.0082305
        k(   21) = (  -0.1111111   0.7777778  -0.1111111), wk =   0.0329218
        k(   22) = (   0.7777778  -0.1111111   0.7777778), wk =   0.0329218
        k(   23) = (   0.6666667  -0.0000000   0.6666667), wk =   0.0164609
        k(   24) = (   0.0000000   0.8888889   0.0000000), wk =   0.0082305
        k(   25) = (   0.8888889   0.0000000   0.8888889), wk =   0.0164609
        k(   26) = (  -0.2222222   0.4444444   0.0000000), wk =   0.0329218
        k(   27) = (  -0.3333333   0.5555556  -0.1111111), wk =   0.0658436
        k(   28) = (   0.5555556  -0.3333333   0.7777778), wk =   0.0658436
        k(   29) = (  -0.2222222   0.6666667   0.0000000), wk =   0.0329218
        k(   30) = (   0.6666667  -0.2222222   0.8888889), wk =   0.0658436
        k(   31) = (   0.5555556  -0.1111111   0.7777778), wk =   0.0658436
        k(   32) = (   0.4444444   0.0000000   0.6666667), wk =   0.0329218
        k(   33) = (   0.7777778  -0.1111111   1.0000000), wk =   0.0329218
        k(   34) = (   0.6666667  -0.0000000   0.8888889), wk =   0.0329218
        k(   35) = (   0.5555556  -0.1111111   1.0000000), wk =   0.0329218

     Dense  grid:     1471 G-vectors     FFT dimensions: (  18,  18,  18)

     Estimated max dynamical RAM per process >      14.55 MB

     Check: negative core charge=   -0.000077

     Initial potential from superposition of free atoms

     starting charge       9.9999, renormalised to      10.0000

     negative rho (up, down):  1.865E-04 0.000E+00
     Starting wfcs are   12 randomized atomic wfcs

     total cpu time spent up to now is        0.7 secs

     Self-consistent Calculation

     iteration #  1     ecut=    20.00 Ry     beta= 0.70
     Davidson diagonalization with overlap
     ethr =  1.00E-02,  avg # of iterations =  2.0

     Threshold (ethr) on eigenvalues was too large:
     Diagonalizing with lowered threshold

     Davidson diagonalization with overlap
     ethr =  5.88E-05,  avg # of iterations =  5.9

     negative rho (up, down):  2.311E-04 0.000E+00

     total cpu time spent up to now is        1.5 secs

     total energy              =     -69.42804992 Ry
     estimated scf accuracy    <       0.00130705 Ry

     iteration #  2     ecut=    20.00 Ry     beta= 0.70
     Davidson diagonalization with overlap
     ethr =  1.31E-05,  avg # of iterations =  2.3

     negative rho (up, down):  2.451E-04 0.000E+00

     total cpu time spent up to now is        1.8 secs

     total energy              =     -69.42828649 Ry
     estimated scf accuracy    <       0.00010517 Ry

     iteration #  3     ecut=    20.00 Ry     beta= 0.70
     Davidson diagonalization with overlap
     ethr =  1.05E-06,  avg # of iterations =  3.3

     negative rho (up, down):  2.520E-04 0.000E+00

     total cpu time spent up to now is        2.1 secs

     total energy              =     -69.42831985 Ry
     estimated scf accuracy    <       0.00000688 Ry

     iteration #  4     ecut=    20.00 Ry     beta= 0.70
     Davidson diagonalization with overlap
     ethr =  6.88E-08,  avg # of iterations =  5.6

     negative rho (up, down):  2.519E-04 0.000E+00

     total cpu time spent up to now is        2.5 secs

     total energy              =     -69.42832476 Ry
     estimated scf accuracy    <       0.00000003 Ry

     iteration #  5     ecut=    20.00 Ry     beta= 0.70
     Davidson diagonalization with overlap
     ethr =  2.96E-10,  avg # of iterations =  9.8

     negative rho (up, down):  2.520E-04 0.000E+00

     total cpu time spent up to now is        3.1 secs

     End of self-consistent calculation

          k = 0.0000 0.0000 0.0000 (   181 PWs)   bands (ev):

     4.4954   4.4954   9.4454   9.4454   9.4454   9.4454  10.4876  10.4876
    11.6668  11.6668

          k =-0.1111 0.1111-0.1111 (   178 PWs)   bands (ev):

     4.8903   4.8903   9.4340   9.4340   9.5066   9.5066  10.5628  10.5628
    11.5469  11.5469

          k =-0.2222 0.2222-0.2222 (   193 PWs)   bands (ev):

     5.9280   5.9280   9.4270   9.4270   9.5549   9.5549  10.7688  10.7688
    11.4385  11.4385

          k =-0.3333 0.3333-0.3333 (   186 PWs)   bands (ev):

     6.9154   6.9154   9.4581   9.4581  10.1198  10.1198  10.6161  10.6161
    11.9397  11.9397

          k =-0.4444 0.4444-0.4444 (   189 PWs)   bands (ev):

     7.1766   7.1766   9.3426   9.3426  10.3773  10.3773  11.9816  11.9816
    12.5165  12.5165

          k = 0.0000 0.2222 0.0000 (   177 PWs)   bands (ev):

     5.0237   5.0237   9.3293   9.3293   9.6133   9.6133  10.6033  10.6033
    11.4431  11.4431

          k =-0.1111 0.3333-0.1111 (   189 PWs)   bands (ev):

     5.8676   5.8676   9.1791   9.1791   9.7105   9.7105  10.8479  10.8479
    11.3041  11.3041

          k =-0.2222 0.4444-0.2222 (   190 PWs)   bands (ev):

     6.9811   6.9811   9.3095   9.3095   9.6313   9.6313  10.7669  10.7669
    11.8525  11.8525

          k =-0.3333 0.5556-0.3333 (   188 PWs)   bands (ev):

     7.4382   7.4382   9.3606   9.3606  10.2930  10.2930  10.7592  10.7592
    12.5948  12.5948

          k = 0.5556-0.3333 0.5556 (   187 PWs)   bands (ev):

     7.4832   7.4832   9.3119   9.3119  10.3578  10.3578  11.2630  11.2630
    12.5785  12.5785

          k = 0.4444-0.2222 0.4444 (   189 PWs)   bands (ev):

     7.3915   7.3915   9.4004   9.4004  10.1973  10.1973  10.5821  10.5821
    12.0124  12.0124

          k = 0.3333-0.1111 0.3333 (   194 PWs)   bands (ev):

     6.6490   6.6490   9.2695   9.2695   9.6473   9.6473  10.8259  10.8259
    11.3496  11.3496

          k = 0.2222-0.0000 0.2222 (   180 PWs)   bands (ev):

     5.5153   5.5153   9.3156   9.3156   9.6205   9.6205  10.7321  10.7321
    11.3285  11.3285

          k = 0.0000 0.4444 0.0000 (   186 PWs)   bands (ev):

     6.4259   6.4259   8.8568   8.8568   9.9083   9.9083  11.1472  11.1472
    11.2736  11.2736

          k =-0.1111 0.5556-0.1111 (   187 PWs)   bands (ev):

     7.3373   7.3373   8.6615   8.6615   9.8787   9.8787  11.2934  11.2934
    11.8633  11.8633

          k =-0.2222 0.6667-0.2222 (   193 PWs)   bands (ev):

     7.9057   7.9057   8.9304   8.9304   9.8023   9.8023  11.1420  11.1420
    12.6670  12.6670

          k = 0.6667-0.2222 0.6667 (   191 PWs)   bands (ev):

     8.0755   8.0755   9.0996   9.0996  10.1091  10.1091  10.9994  10.9994
    12.6238  12.6238

          k = 0.5556-0.1111 0.5556 (   190 PWs)   bands (ev):

     8.2109   8.2109   9.1808   9.1808   9.9077   9.9077  10.8233  10.8233
    12.0549  12.0549

          k = 0.4444 0.0000 0.4444 (   192 PWs)   bands (ev):

     7.7734   7.7734   9.1052   9.1052   9.6010   9.6010  10.8579  10.8579
    11.4404  11.4404

          k = 0.0000 0.6667 0.0000 (   194 PWs)   bands (ev):

     7.5593   7.5593   8.2735   8.2735  10.7801  10.7801  11.9059  11.9059
    12.0099  12.0099

          k =-0.1111 0.7778-0.1111 (   195 PWs)   bands (ev):

     7.7681   7.7681   8.1932   8.1932  11.0203  11.0203  11.9901  11.9901
    12.7757  12.7757

          k = 0.7778-0.1111 0.7778 (   190 PWs)   bands (ev):

     8.0145   8.0145   8.5367   8.5367  10.6397  10.6397  11.7173  11.7173
    12.7999  12.7999

          k = 0.6667-0.0000 0.6667 (   186 PWs)   bands (ev):

     8.3486   8.3486   8.9974   8.9974  10.0369  10.0369  11.3044  11.3044
    12.3666  12.3666

          k = 0.0000 0.8889 0.0000 (   194 PWs)   bands (ev):

     7.5294   7.5294   7.9074   7.9074  12.3364  12.3364  12.4244  12.4244
    13.4041  13.4041

          k = 0.8889 0.0000 0.8889 (   196 PWs)   bands (ev):

     7.6592   7.6592   8.0090   8.0090  11.8609  11.8609  12.2826  12.2826
    13.1535  13.1535

          k =-0.2222 0.4444 0.0000 (   194 PWs)   bands (ev):

     6.8216   6.8216   8.9684   8.9684   9.7082   9.7082  11.1455  11.1455
    11.2463  11.2463

          k =-0.3333 0.5556-0.1111 (   192 PWs)   bands (ev):

     7.7877   7.7877   9.1284   9.1284   9.5179   9.5179  10.9837  10.9837
    11.9207  11.9207

          k = 0.5556-0.3333 0.7778 (   194 PWs)   bands (ev):

     7.9820   7.9820   9.1724   9.1724  10.0738  10.0738  10.8978  10.8978
    12.4936  12.4936

          k =-0.2222 0.6667 0.0000 (   195 PWs)   bands (ev):

     7.9454   7.9454   8.4940   8.4940   9.9531   9.9531  11.8236  11.8236
    12.0328  12.0328

          k = 0.6667-0.2222 0.8889 (   193 PWs)   bands (ev):

     8.2650   8.2650   8.7445   8.7445   9.8675   9.8675  11.5905  11.5905
    12.6054  12.6054

          k = 0.5556-0.1111 0.7778 (   196 PWs)   bands (ev):

     8.5144   8.5144   8.9225   8.9225   9.7866   9.7866  11.3042  11.3042
    12.5454  12.5454

          k = 0.4444 0.0000 0.6667 (   192 PWs)   bands (ev):

     8.6561   8.6561   8.9597   8.9597   9.3367   9.3367  11.2906  11.2906
    12.0764  12.0764

          k = 0.7778-0.1111 1.0000 (   198 PWs)   bands (ev):

     7.8803   7.8803   8.1835   8.1835  11.0597  11.0597  12.1618  12.1618
    12.9656  12.9656

          k = 0.6667-0.0000 0.8889 (   199 PWs)   bands (ev):

     8.1883   8.1883   8.5761   8.5761  10.4131  10.4131  11.7134  11.7134
    12.9064  12.9064

          k = 0.5556-0.1111 1.0000 (   198 PWs)   bands (ev):

     8.5261   8.5261   8.9583   8.9583   9.6155   9.6155  11.4825  11.4825
    12.8648  12.8648

     highest occupied level (ev):    13.4041

!    total energy              =     -69.42832499 Ry
     estimated scf accuracy    <          1.5E-09 Ry

     The total energy is the sum of the following terms:
     one-electron contribution =      11.22298453 Ry
     hartree contribution      =       5.14074412 Ry
     xc contribution           =     -28.33764164 Ry
     ewald contribution        =     -57.45441200 Ry

     convergence has been achieved in   5 iterations

     negative rho (up, down):  2.520E-04 0.000E+00

     Forces acting on atoms (cartesian axes, Ry/au):

     atom    1 type  1   force =     0.00000000    0.00000000    0.00000000

     Total force =     0.000000     Total SCF correction =     0.000000


     Computing stress (Cartesian axis) and pressure


     negative rho (up, down):  2.520E-04 0.000E+00
          total   stress  (Ry/bohr**3)                   (kbar)     P=     -312.74
  -0.00212599   0.00000000   0.00000000         -312.74        0.00        0.00
   0.00000000  -0.00212599  -0.00000000            0.00     -312.74       -0.00
   0.00000000  -0.00000000  -0.00212599            0.00       -0.00     -312.74


     Writing all to output data dir ./platinum.save/ :
     XML data file, charge density, pseudopotentials, collected wavefunctions

     init_run     :      0.40s CPU      0.61s WALL (       1 calls)
     electrons    :      2.23s CPU      2.39s WALL (       1 calls)
     forces       :      0.04s CPU      0.04s WALL (       1 calls)
     stress       :      0.19s CPU      0.19s WALL (       1 calls)

     Called by init_run:
     wfcinit      :      0.14s CPU      0.24s WALL (       1 calls)
     potinit      :      0.01s CPU      0.01s WALL (       1 calls)
     hinit0       :      0.24s CPU      0.34s WALL (       1 calls)

     Called by electrons:
     c_bands      :      1.86s CPU      2.00s WALL (       6 calls)
     sum_band     :      0.30s CPU      0.32s WALL (       6 calls)
     v_of_rho     :      0.00s CPU      0.00s WALL (       6 calls)
     newd         :      0.07s CPU      0.08s WALL (       6 calls)
     mix_rho      :      0.00s CPU      0.00s WALL (       6 calls)

     Called by c_bands:
     init_us_2    :      0.02s CPU      0.02s WALL (     525 calls)
     cegterg      :      1.79s CPU      1.92s WALL (     210 calls)

     Called by *egterg:
     cdiaghg      :      0.08s CPU      0.08s WALL (    1184 calls)
     h_psi        :      1.33s CPU      1.53s WALL (    1254 calls)
     s_psi        :      0.12s CPU      0.13s WALL (    1254 calls)
     g_psi        :      0.01s CPU      0.01s WALL (    1009 calls)

     Called by h_psi:
     h_psi:calbec :      0.10s CPU      0.11s WALL (    1254 calls)
     vloc_psi     :      1.10s CPU      1.27s WALL (    1254 calls)
     add_vuspsi   :      0.12s CPU      0.13s WALL (    1254 calls)

     General routines
     calbec       :      0.14s CPU      0.15s WALL (    1639 calls)
     fft          :      0.11s CPU      0.20s WALL (      69 calls)
     ffts         :      0.00s CPU      0.00s WALL (      24 calls)
     fftw         :      0.99s CPU      1.16s WALL (   37884 calls)

     Parallel routines

     PWSCF        :      2.96s CPU      3.34s WALL


   This run was terminated on:  22: 3:11   4Nov2024            

=------------------------------------------------------------------------------=
   JOB DONE.
=------------------------------------------------------------------------------=
