
     Program PWSCF v.7.3.1 starts on  4Nov2024 at 22: 1:50 

     This program is part of the open-source Quantum ESPRESSO suite
     for quantum simulation of materials; please cite
         "P. Giannozzi et al., J. Phys.:Condens. Matter 21 395502 (2009);
         "P. Giannozzi et al., J. Phys.:Condens. Matter 29 465901 (2017);
         "P. Giannozzi et al., J. Chem. Phys. 152 154105 (2020);
          URL http://www.quantum-espresso.org", 
     in publications or presentations arising from this work. More details at
     http://www.quantum-espresso.org/quote

     Parallel version (MPI), running on     1 processors

     MPI processes distributed on     1 nodes
     11859 MiB available memory on the printing compute node when the environment starts

     Waiting for input...
     Reading input from standard input

     Current dimensions of program PWSCF are:
     Max number of different atomic species (ntypx) = 10
     Max number of k-points (npk) =  40000
     Max angular momentum in pseudopotentials (lmaxx) =  4

     Subspace diagonalization in iterative solution of the eigenvalue problem:
     a serial algorithm will be used


     G-vector sticks info
     --------------------
     sticks:   dense  smooth     PW     G-vecs:    dense   smooth      PW
     Sum         163     163     61                 1363     1363     331

     Using Slab Decomposition



     bravais-lattice index     =            2
     lattice parameter (alat)  =       7.6000  a.u.
     unit-cell volume          =     109.7440 (a.u.)^3
     number of atoms/cell      =            1
     number of atomic types    =            1
     number of electrons       =        10.00
     number of Kohn-Sham states=           10
     kinetic-energy cutoff     =      20.0000  Ry
     charge density cutoff     =      80.0000  Ry
     scf convergence threshold =      1.0E-08
     mixing beta               =       0.7000
     number of iterations used =            8  plain     mixing
     Exchange-correlation=  SLA  PZ   NOGX NOGC
                           (   1   1   0   0   0   0   0)
     Non magnetic calculation with spin-orbit


     celldm(1)=   7.600000  celldm(2)=   0.000000  celldm(3)=   0.000000
     celldm(4)=   0.000000  celldm(5)=   0.000000  celldm(6)=   0.000000

     crystal axes: (cart. coord. in units of alat)
               a(1) = (  -0.500000   0.000000   0.500000 )  
               a(2) = (   0.000000   0.500000   0.500000 )  
               a(3) = (  -0.500000   0.500000   0.000000 )  

     reciprocal axes: (cart. coord. in units 2 pi/alat)
               b(1) = ( -1.000000 -1.000000  1.000000 )  
               b(2) = (  1.000000  1.000000  1.000000 )  
               b(3) = ( -1.000000  1.000000 -1.000000 )  


     PseudoPot. # 1 for Pt read from file:
     /home/dashlander/Desktop/Sem7/CPD/Assignment_3/pseudo/Pt.rel-pz-n-rrkjus.UPF
     MD5 check sum: 4baafe8ec1942611396c7a5466f52249
     Pseudo is Ultrasoft + core correction, Zval = 10.0
     Generated by new atomic code, or converted to UPF format
     Using radial grid of 1277 points,  6 beta functions with: 
                l(1) =   2
                l(2) =   2
                l(3) =   2
                l(4) =   2
                l(5) =   1
                l(6) =   1
     Q(r) pseudized with 0 coefficients 


     atomic species   valence    mass     pseudopotential
     Pt               10.00   195.08400     Pt( 1.00)

     48 Sym. Ops., with inversion, found



   Cartesian axes

     site n.     atom                  positions (alat units)
         1        Pt     tau(   1) = (   0.0000000   0.0000000   0.0000000  )

     number of k points=    35
                       cart. coord. in units 2pi/alat
        k(    1) = (   0.0000000   0.0000000   0.0000000), wk =   0.0013717
        k(    2) = (  -0.1111111   0.1111111  -0.1111111), wk =   0.0109739
        k(    3) = (  -0.2222222   0.2222222  -0.2222222), wk =   0.0109739
        k(    4) = (  -0.3333333   0.3333333  -0.3333333), wk =   0.0109739
        k(    5) = (  -0.4444444   0.4444444  -0.4444444), wk =   0.0109739
        k(    6) = (   0.0000000   0.2222222   0.0000000), wk =   0.0082305
        k(    7) = (  -0.1111111   0.3333333  -0.1111111), wk =   0.0329218
        k(    8) = (  -0.2222222   0.4444444  -0.2222222), wk =   0.0329218
        k(    9) = (  -0.3333333   0.5555556  -0.3333333), wk =   0.0329218
        k(   10) = (   0.5555556  -0.3333333   0.5555556), wk =   0.0329218
        k(   11) = (   0.4444444  -0.2222222   0.4444444), wk =   0.0329218
        k(   12) = (   0.3333333  -0.1111111   0.3333333), wk =   0.0329218
        k(   13) = (   0.2222222  -0.0000000   0.2222222), wk =   0.0164609
        k(   14) = (   0.0000000   0.4444444   0.0000000), wk =   0.0082305
        k(   15) = (  -0.1111111   0.5555556  -0.1111111), wk =   0.0329218
        k(   16) = (  -0.2222222   0.6666667  -0.2222222), wk =   0.0329218
        k(   17) = (   0.6666667  -0.2222222   0.6666667), wk =   0.0329218
        k(   18) = (   0.5555556  -0.1111111   0.5555556), wk =   0.0329218
        k(   19) = (   0.4444444   0.0000000   0.4444444), wk =   0.0164609
        k(   20) = (   0.0000000   0.6666667   0.0000000), wk =   0.0082305
        k(   21) = (  -0.1111111   0.7777778  -0.1111111), wk =   0.0329218
        k(   22) = (   0.7777778  -0.1111111   0.7777778), wk =   0.0329218
        k(   23) = (   0.6666667  -0.0000000   0.6666667), wk =   0.0164609
        k(   24) = (   0.0000000   0.8888889   0.0000000), wk =   0.0082305
        k(   25) = (   0.8888889   0.0000000   0.8888889), wk =   0.0164609
        k(   26) = (  -0.2222222   0.4444444   0.0000000), wk =   0.0329218
        k(   27) = (  -0.3333333   0.5555556  -0.1111111), wk =   0.0658436
        k(   28) = (   0.5555556  -0.3333333   0.7777778), wk =   0.0658436
        k(   29) = (  -0.2222222   0.6666667   0.0000000), wk =   0.0329218
        k(   30) = (   0.6666667  -0.2222222   0.8888889), wk =   0.0658436
        k(   31) = (   0.5555556  -0.1111111   0.7777778), wk =   0.0658436
        k(   32) = (   0.4444444   0.0000000   0.6666667), wk =   0.0329218
        k(   33) = (   0.7777778  -0.1111111   1.0000000), wk =   0.0329218
        k(   34) = (   0.6666667  -0.0000000   0.8888889), wk =   0.0329218
        k(   35) = (   0.5555556  -0.1111111   1.0000000), wk =   0.0329218

     Dense  grid:     1363 G-vectors     FFT dimensions: (  15,  15,  15)

     Estimated max dynamical RAM per process >      13.03 MB

     Check: negative core charge=   -0.000048

     Initial potential from superposition of free atoms

     starting charge       9.9999, renormalised to      10.0000

     negative rho (up, down):  1.399E-04 0.000E+00
     Starting wfcs are   12 randomized atomic wfcs

     total cpu time spent up to now is        0.4 secs

     Self-consistent Calculation

     iteration #  1     ecut=    20.00 Ry     beta= 0.70
     Davidson diagonalization with overlap
     ethr =  1.00E-02,  avg # of iterations =  2.0

     Threshold (ethr) on eigenvalues was too large:
     Diagonalizing with lowered threshold

     Davidson diagonalization with overlap
     ethr =  3.11E-05,  avg # of iterations =  6.7

     negative rho (up, down):  2.227E-04 0.000E+00

     total cpu time spent up to now is        0.9 secs

     total energy              =     -69.45434756 Ry
     estimated scf accuracy    <       0.00347198 Ry

     iteration #  2     ecut=    20.00 Ry     beta= 0.70
     Davidson diagonalization with overlap
     ethr =  3.47E-05,  avg # of iterations =  2.2

     negative rho (up, down):  2.454E-04 0.000E+00

     total cpu time spent up to now is        1.2 secs

     total energy              =     -69.45523932 Ry
     estimated scf accuracy    <       0.00044040 Ry

     iteration #  3     ecut=    20.00 Ry     beta= 0.70
     Davidson diagonalization with overlap
     ethr =  4.40E-06,  avg # of iterations =  2.1

     negative rho (up, down):  2.629E-04 0.000E+00

     total cpu time spent up to now is        1.4 secs

     total energy              =     -69.45531546 Ry
     estimated scf accuracy    <       0.00001362 Ry

     iteration #  4     ecut=    20.00 Ry     beta= 0.70
     Davidson diagonalization with overlap
     ethr =  1.36E-07,  avg # of iterations =  6.7

     negative rho (up, down):  2.627E-04 0.000E+00

     total cpu time spent up to now is        1.7 secs

     total energy              =     -69.45539038 Ry
     estimated scf accuracy    <       0.00000067 Ry

     iteration #  5     ecut=    20.00 Ry     beta= 0.70
     Davidson diagonalization with overlap
     c_bands:  1 eigenvalues not converged
     ethr =  6.68E-09,  avg # of iterations =  5.3

     negative rho (up, down):  2.628E-04 0.000E+00

     total cpu time spent up to now is        2.0 secs

     total energy              =     -69.45546603 Ry
     estimated scf accuracy    <       0.00000794 Ry

     iteration #  6     ecut=    20.00 Ry     beta= 0.70
     Davidson diagonalization with overlap
     c_bands:  1 eigenvalues not converged
     ethr =  6.68E-09,  avg # of iterations =  6.5

     negative rho (up, down):  2.634E-04 0.000E+00

     total cpu time spent up to now is        2.3 secs

     total energy              =     -69.45543204 Ry
     estimated scf accuracy    <       0.00007750 Ry

     iteration #  7     ecut=    20.00 Ry     beta= 0.70
     Davidson diagonalization with overlap
     ethr =  6.68E-09,  avg # of iterations =  7.1

     negative rho (up, down):  2.634E-04 0.000E+00

     total cpu time spent up to now is        2.8 secs

     total energy              =     -69.45544549 Ry
     estimated scf accuracy    <       0.00000017 Ry

     iteration #  8     ecut=    20.00 Ry     beta= 0.70
     Davidson diagonalization with overlap
     ethr =  1.65E-09,  avg # of iterations =  3.2

     negative rho (up, down):  2.634E-04 0.000E+00

     total cpu time spent up to now is        3.0 secs

     End of self-consistent calculation

          k = 0.0000 0.0000 0.0000 (   169 PWs)   bands (ev):

     6.2750   6.2750  11.9984  11.9984  11.9984  11.9984  13.0062  13.0062
    14.5600  14.5600

          k =-0.1111 0.1111-0.1111 (   169 PWs)   bands (ev):

     6.7259   6.7259  11.9625  11.9625  12.0871  12.0871  13.1029  13.1029
    14.4115  14.4115

          k =-0.2222 0.2222-0.2222 (   162 PWs)   bands (ev):

     7.8907   7.8907  11.8969  11.8969  12.1580  12.1580  13.3557  13.3557
    14.3127  14.3127

          k =-0.3333 0.3333-0.3333 (   153 PWs)   bands (ev):

     8.9229   8.9229  12.0191  12.0191  12.6953  12.6953  13.1540  13.1540
    14.9675  14.9675

          k =-0.4444 0.4444-0.4444 (   162 PWs)   bands (ev):

     9.1526   9.1526  11.8593  11.8593  12.8795  12.8795  14.7867  14.7867
    15.5921  15.5921

          k = 0.0000 0.2222 0.0000 (   165 PWs)   bands (ev):

     6.8786   6.8786  11.8213  11.8213  12.2256  12.2256  13.1658  13.1658
    14.2400  14.2400

          k =-0.1111 0.3333-0.1111 (   166 PWs)   bands (ev):

     7.8310   7.8310  11.5897  11.5897  12.3496  12.3496  13.4800  13.4800
    14.0792  14.0792

          k =-0.2222 0.4444-0.2222 (   162 PWs)   bands (ev):

     9.0361   9.0361  11.7458  11.7458  12.1754  12.1754  13.3611  13.3611
    14.8480  14.8480

          k =-0.3333 0.5556-0.3333 (   167 PWs)   bands (ev):

     9.4736   9.4736  11.8626  11.8626  12.8324  12.8324  13.3294  13.3294
    15.8162  15.8162

          k = 0.5556-0.3333 0.5556 (   164 PWs)   bands (ev):

     9.5095   9.5095  11.7965  11.7965  12.8746  12.8746  13.9392  13.9392
    15.7726  15.7726

          k = 0.4444-0.2222 0.4444 (   163 PWs)   bands (ev):

     9.4453   9.4453  11.9295  11.9295  12.7394  12.7394  13.1191  13.1191
    15.0250  15.0250

          k = 0.3333-0.1111 0.3333 (   161 PWs)   bands (ev):

     8.6935   8.6935  11.6910  11.6910  12.2409  12.2409  13.4330  13.4330
    14.1601  14.1601

          k = 0.2222-0.0000 0.2222 (   164 PWs)   bands (ev):

     7.4356   7.4356  11.7794  11.7794  12.2377  12.2377  13.3255  13.3255
    14.1145  14.1145

          k = 0.0000 0.4444 0.0000 (   165 PWs)   bands (ev):

     8.4481   8.4481  11.1575  11.1575  12.5987  12.5987  13.9165  13.9165
    13.9894  13.9894

          k =-0.1111 0.5556-0.1111 (   162 PWs)   bands (ev):

     9.4275   9.4275  10.8948  10.8948  12.4800  12.4800  14.0775  14.0775
    14.8648  14.8648

          k =-0.2222 0.6667-0.2222 (   167 PWs)   bands (ev):

    10.0083  10.0083  11.2193  11.2193  12.3091  12.3091  13.8800  13.8800
    15.9223  15.9223

          k = 0.6667-0.2222 0.6667 (   166 PWs)   bands (ev):

    10.2032  10.2032  11.4423  11.4423  12.6207  12.6207  13.6790  13.6790
    15.8388  15.8388

          k = 0.5556-0.1111 0.5556 (   168 PWs)   bands (ev):

    10.3962  10.3962  11.5859  11.5859  12.3234  12.3234  13.4997  13.4997
    15.0643  15.0643

          k = 0.4444 0.0000 0.4444 (   164 PWs)   bands (ev):

     9.9536   9.9536  11.4723  11.4723  12.0822  12.0822  13.5394  13.5394
    14.2420  14.2420

          k = 0.0000 0.6667 0.0000 (   170 PWs)   bands (ev):

     9.5944   9.5944  10.3982  10.3982  13.5725  13.5725  14.9710  14.9710
    14.9748  14.9748

          k =-0.1111 0.7778-0.1111 (   168 PWs)   bands (ev):

     9.7844   9.7844  10.2944  10.2944  13.7951  13.7951  15.0230  15.0230
    16.0130  16.0130

          k = 0.7778-0.1111 0.7778 (   170 PWs)   bands (ev):

    10.0735  10.0735  10.7164  10.7164  13.2786  13.2786  14.6698  14.6698
    16.0351  16.0351

          k = 0.6667-0.0000 0.6667 (   172 PWs)   bands (ev):

    10.5105  10.5105  11.3140  11.3140  12.4796  12.4796  14.1513  14.1513
    15.4559  15.4559

          k = 0.0000 0.8889 0.0000 (   162 PWs)   bands (ev):

     9.4683   9.4683   9.9354   9.9354  15.5621  15.5621  15.6758  15.6758
    16.7237  16.7237

          k = 0.8889 0.0000 0.8889 (   170 PWs)   bands (ev):

     9.6185   9.6185  10.0632  10.0632  14.8356  14.8356  15.4613  15.4613
    16.4198  16.4198

          k =-0.2222 0.4444 0.0000 (   164 PWs)   bands (ev):

     8.8945   8.8945  11.2956  11.2956  12.2998  12.2998  13.8576  13.8576
    14.0388  14.0388

          k =-0.3333 0.5556-0.1111 (   164 PWs)   bands (ev):

     9.9314   9.9314  11.5031  11.5031  11.9548  11.9548  13.6785  13.6785
    14.9065  14.9065

          k = 0.5556-0.3333 0.7778 (   167 PWs)   bands (ev):

    10.1075  10.1075  11.5565  11.5565  12.5784  12.5784  13.5272  13.5272
    15.6667  15.6667

          k =-0.2222 0.6667 0.0000 (   164 PWs)   bands (ev):

    10.0582  10.0582  10.6764  10.6764  12.5027  12.5027  14.7971  14.7971
    15.0483  15.0483

          k = 0.6667-0.2222 0.8889 (   165 PWs)   bands (ev):

    10.4045  10.4045  10.9806  10.9806  12.3393  12.3393  14.4687  14.4687
    15.8058  15.8058

          k = 0.5556-0.1111 0.7778 (   165 PWs)   bands (ev):

    10.7305  10.7305  11.2030  11.2030  12.2001  12.2001  14.0925  14.0925
    15.7243  15.7243

          k = 0.4444 0.0000 0.6667 (   167 PWs)   bands (ev):

    10.9593  10.9593  11.3012  11.3012  11.5966  11.5966  14.0913  14.0913
    15.0985  15.0985

          k = 0.7778-0.1111 1.0000 (   168 PWs)   bands (ev):

     9.8937   9.8937  10.2844  10.2844  13.8167  13.8167  15.2620  15.2620
    16.2270  16.2270

          k = 0.6667-0.0000 0.8889 (   167 PWs)   bands (ev):

    10.2744  10.2744  10.7742  10.7742  12.9919  12.9919  14.6467  14.6467
    16.1823  16.1823

          k = 0.5556-0.1111 1.0000 (   163 PWs)   bands (ev):

    10.6939  10.6939  11.2890  11.2890  11.9729  11.9729  14.3166  14.3166
    16.1474  16.1474

     highest occupied level (ev):    16.7237

!    total energy              =     -69.45544555 Ry
     estimated scf accuracy    <          7.9E-09 Ry

     The total energy is the sum of the following terms:
     one-electron contribution =      15.12923203 Ry
     hartree contribution      =       4.21333929 Ry
     xc contribution           =     -28.47088430 Ry
     ewald contribution        =     -60.32713257 Ry

     convergence has been achieved in   8 iterations

     negative rho (up, down):  2.634E-04 0.000E+00

     Forces acting on atoms (cartesian axes, Ry/au):

     atom    1 type  1   force =     0.00000000    0.00000000    0.00000000

     Total force =     0.000000     Total SCF correction =     0.000000


     Computing stress (Cartesian axis) and pressure


     negative rho (up, down):  2.634E-04 0.000E+00
          total   stress  (Ry/bohr**3)                   (kbar)     P=     -124.15
  -0.00084396   0.00000000   0.00000000         -124.15        0.00        0.00
   0.00000000  -0.00084396  -0.00000000            0.00     -124.15       -0.00
   0.00000000  -0.00000000  -0.00084396            0.00       -0.00     -124.15


     Writing all to output data dir ./platinum.save/ :
     XML data file, charge density, pseudopotentials, collected wavefunctions

     init_run     :      0.22s CPU      0.28s WALL (       1 calls)
     electrons    :      2.31s CPU      2.63s WALL (       1 calls)
     forces       :      0.04s CPU      0.04s WALL (       1 calls)
     stress       :      0.17s CPU      0.17s WALL (       1 calls)

     Called by init_run:
     wfcinit      :      0.04s CPU      0.08s WALL (       1 calls)
     potinit      :      0.01s CPU      0.01s WALL (       1 calls)
     hinit0       :      0.16s CPU      0.18s WALL (       1 calls)

     Called by electrons:
     c_bands      :      1.88s CPU      2.16s WALL (       9 calls)
     sum_band     :      0.33s CPU      0.36s WALL (       9 calls)
     v_of_rho     :      0.00s CPU      0.00s WALL (       9 calls)
     newd         :      0.11s CPU      0.11s WALL (       9 calls)
     mix_rho      :      0.00s CPU      0.00s WALL (       9 calls)

     Called by c_bands:
     init_us_2    :      0.03s CPU      0.03s WALL (     735 calls)
     cegterg      :      1.78s CPU      2.05s WALL (     315 calls)

     Called by *egterg:
     cdiaghg      :      0.12s CPU      0.14s WALL (    1745 calls)
     h_psi        :      0.99s CPU      1.17s WALL (    1815 calls)
     s_psi        :      0.16s CPU      0.19s WALL (    1815 calls)
     g_psi        :      0.02s CPU      0.02s WALL (    1465 calls)

     Called by h_psi:
     h_psi:calbec :      0.13s CPU      0.15s WALL (    1815 calls)
     vloc_psi     :      0.68s CPU      0.81s WALL (    1815 calls)
     add_vuspsi   :      0.16s CPU      0.19s WALL (    1815 calls)

     General routines
     calbec       :      0.17s CPU      0.20s WALL (    2305 calls)
     fft          :      0.01s CPU      0.03s WALL (      99 calls)
     ffts         :      0.00s CPU      0.00s WALL (      36 calls)
     fftw         :      0.50s CPU      0.60s WALL (   59428 calls)

     Parallel routines

     PWSCF        :      2.85s CPU      3.23s WALL


   This run was terminated on:  22: 1:53   4Nov2024            

=------------------------------------------------------------------------------=
   JOB DONE.
=------------------------------------------------------------------------------=
