
     Program PWSCF v.7.3.1 starts on  4Nov2024 at 21:59:46 

     This program is part of the open-source Quantum ESPRESSO suite
     for quantum simulation of materials; please cite
         "P. Giannozzi et al., J. Phys.:Condens. Matter 21 395502 (2009);
         "P. Giannozzi et al., J. Phys.:Condens. Matter 29 465901 (2017);
         "P. Giannozzi et al., J. Chem. Phys. 152 154105 (2020);
          URL http://www.quantum-espresso.org", 
     in publications or presentations arising from this work. More details at
     http://www.quantum-espresso.org/quote

     Parallel version (MPI), running on     1 processors

     MPI processes distributed on     1 nodes
     11985 MiB available memory on the printing compute node when the environment starts

     Waiting for input...
     Reading input from standard input

     Current dimensions of program PWSCF are:
     Max number of different atomic species (ntypx) = 10
     Max number of k-points (npk) =  40000
     Max angular momentum in pseudopotentials (lmaxx) =  4

     Subspace diagonalization in iterative solution of the eigenvalue problem:
     a serial algorithm will be used


     G-vector sticks info
     --------------------
     sticks:   dense  smooth     PW     G-vecs:    dense   smooth      PW
     Sum         139     139     55                 1037     1037     259

     Using Slab Decomposition



     bravais-lattice index     =            2
     lattice parameter (alat)  =       7.0000  a.u.
     unit-cell volume          =      85.7500 (a.u.)^3
     number of atoms/cell      =            1
     number of atomic types    =            1
     number of electrons       =        10.00
     number of Kohn-Sham states=           10
     kinetic-energy cutoff     =      20.0000  Ry
     charge density cutoff     =      80.0000  Ry
     scf convergence threshold =      1.0E-08
     mixing beta               =       0.7000
     number of iterations used =            8  plain     mixing
     Exchange-correlation=  SLA  PZ   NOGX NOGC
                           (   1   1   0   0   0   0   0)
     Non magnetic calculation with spin-orbit


     celldm(1)=   7.000000  celldm(2)=   0.000000  celldm(3)=   0.000000
     celldm(4)=   0.000000  celldm(5)=   0.000000  celldm(6)=   0.000000

     crystal axes: (cart. coord. in units of alat)
               a(1) = (  -0.500000   0.000000   0.500000 )  
               a(2) = (   0.000000   0.500000   0.500000 )  
               a(3) = (  -0.500000   0.500000   0.000000 )  

     reciprocal axes: (cart. coord. in units 2 pi/alat)
               b(1) = ( -1.000000 -1.000000  1.000000 )  
               b(2) = (  1.000000  1.000000  1.000000 )  
               b(3) = ( -1.000000  1.000000 -1.000000 )  


     PseudoPot. # 1 for Pt read from file:
     /home/dashlander/Desktop/Sem7/CPD/Assignment_3/pseudo/Pt.rel-pz-n-rrkjus.UPF
     MD5 check sum: 4baafe8ec1942611396c7a5466f52249
     Pseudo is Ultrasoft + core correction, Zval = 10.0
     Generated by new atomic code, or converted to UPF format
     Using radial grid of 1277 points,  6 beta functions with: 
                l(1) =   2
                l(2) =   2
                l(3) =   2
                l(4) =   2
                l(5) =   1
                l(6) =   1
     Q(r) pseudized with 0 coefficients 


     atomic species   valence    mass     pseudopotential
     Pt               10.00   195.08400     Pt( 1.00)

     48 Sym. Ops., with inversion, found



   Cartesian axes

     site n.     atom                  positions (alat units)
         1        Pt     tau(   1) = (   0.0000000   0.0000000   0.0000000  )

     number of k points=    35
                       cart. coord. in units 2pi/alat
        k(    1) = (   0.0000000   0.0000000   0.0000000), wk =   0.0013717
        k(    2) = (  -0.1111111   0.1111111  -0.1111111), wk =   0.0109739
        k(    3) = (  -0.2222222   0.2222222  -0.2222222), wk =   0.0109739
        k(    4) = (  -0.3333333   0.3333333  -0.3333333), wk =   0.0109739
        k(    5) = (  -0.4444444   0.4444444  -0.4444444), wk =   0.0109739
        k(    6) = (   0.0000000   0.2222222   0.0000000), wk =   0.0082305
        k(    7) = (  -0.1111111   0.3333333  -0.1111111), wk =   0.0329218
        k(    8) = (  -0.2222222   0.4444444  -0.2222222), wk =   0.0329218
        k(    9) = (  -0.3333333   0.5555556  -0.3333333), wk =   0.0329218
        k(   10) = (   0.5555556  -0.3333333   0.5555556), wk =   0.0329218
        k(   11) = (   0.4444444  -0.2222222   0.4444444), wk =   0.0329218
        k(   12) = (   0.3333333  -0.1111111   0.3333333), wk =   0.0329218
        k(   13) = (   0.2222222  -0.0000000   0.2222222), wk =   0.0164609
        k(   14) = (   0.0000000   0.4444444   0.0000000), wk =   0.0082305
        k(   15) = (  -0.1111111   0.5555556  -0.1111111), wk =   0.0329218
        k(   16) = (  -0.2222222   0.6666667  -0.2222222), wk =   0.0329218
        k(   17) = (   0.6666667  -0.2222222   0.6666667), wk =   0.0329218
        k(   18) = (   0.5555556  -0.1111111   0.5555556), wk =   0.0329218
        k(   19) = (   0.4444444   0.0000000   0.4444444), wk =   0.0164609
        k(   20) = (   0.0000000   0.6666667   0.0000000), wk =   0.0082305
        k(   21) = (  -0.1111111   0.7777778  -0.1111111), wk =   0.0329218
        k(   22) = (   0.7777778  -0.1111111   0.7777778), wk =   0.0329218
        k(   23) = (   0.6666667  -0.0000000   0.6666667), wk =   0.0164609
        k(   24) = (   0.0000000   0.8888889   0.0000000), wk =   0.0082305
        k(   25) = (   0.8888889   0.0000000   0.8888889), wk =   0.0164609
        k(   26) = (  -0.2222222   0.4444444   0.0000000), wk =   0.0329218
        k(   27) = (  -0.3333333   0.5555556  -0.1111111), wk =   0.0658436
        k(   28) = (   0.5555556  -0.3333333   0.7777778), wk =   0.0658436
        k(   29) = (  -0.2222222   0.6666667   0.0000000), wk =   0.0329218
        k(   30) = (   0.6666667  -0.2222222   0.8888889), wk =   0.0658436
        k(   31) = (   0.5555556  -0.1111111   0.7777778), wk =   0.0658436
        k(   32) = (   0.4444444   0.0000000   0.6666667), wk =   0.0329218
        k(   33) = (   0.7777778  -0.1111111   1.0000000), wk =   0.0329218
        k(   34) = (   0.6666667  -0.0000000   0.8888889), wk =   0.0329218
        k(   35) = (   0.5555556  -0.1111111   1.0000000), wk =   0.0329218

     Dense  grid:     1037 G-vectors     FFT dimensions: (  15,  15,  15)

     Estimated max dynamical RAM per process >      10.27 MB

     Check: negative core charge=   -0.000023

     Initial potential from superposition of free atoms

     starting charge       9.9999, renormalised to      10.0000

     negative rho (up, down):  7.896E-05 0.000E+00
     Starting wfcs are   12 randomized atomic wfcs

     total cpu time spent up to now is        0.4 secs

     Self-consistent Calculation

     iteration #  1     ecut=    20.00 Ry     beta= 0.70
     Davidson diagonalization with overlap
     ethr =  1.00E-02,  avg # of iterations =  2.3

     Threshold (ethr) on eigenvalues was too large:
     Diagonalizing with lowered threshold

     Davidson diagonalization with overlap
     ethr =  1.19E-05,  avg # of iterations =  7.7

     negative rho (up, down):  1.859E-04 0.000E+00

     total cpu time spent up to now is        0.9 secs

     total energy              =     -69.40922906 Ry
     estimated scf accuracy    <       0.00426406 Ry

     iteration #  2     ecut=    20.00 Ry     beta= 0.70
     Davidson diagonalization with overlap
     ethr =  4.26E-05,  avg # of iterations =  2.1

     negative rho (up, down):  2.162E-04 0.000E+00

     total cpu time spent up to now is        1.1 secs

     total energy              =     -69.41024998 Ry
     estimated scf accuracy    <       0.00030532 Ry

     iteration #  3     ecut=    20.00 Ry     beta= 0.70
     Davidson diagonalization with overlap
     ethr =  3.05E-06,  avg # of iterations =  2.2

     negative rho (up, down):  2.356E-04 0.000E+00

     total cpu time spent up to now is        1.3 secs

     total energy              =     -69.41029853 Ry
     estimated scf accuracy    <       0.00001124 Ry

     iteration #  4     ecut=    20.00 Ry     beta= 0.70
     Davidson diagonalization with overlap
     ethr =  1.12E-07,  avg # of iterations =  5.9

     negative rho (up, down):  2.361E-04 0.000E+00

     total cpu time spent up to now is        1.5 secs

     total energy              =     -69.41031041 Ry
     estimated scf accuracy    <       0.00000126 Ry

     iteration #  5     ecut=    20.00 Ry     beta= 0.70
     Davidson diagonalization with overlap
     ethr =  1.26E-08,  avg # of iterations =  3.8

     negative rho (up, down):  2.369E-04 0.000E+00

     total cpu time spent up to now is        1.7 secs

     total energy              =     -69.41031078 Ry
     estimated scf accuracy    <       0.00000002 Ry

     iteration #  6     ecut=    20.00 Ry     beta= 0.70
     Davidson diagonalization with overlap
     ethr =  1.91E-10,  avg # of iterations =  7.1

     negative rho (up, down):  2.370E-04 0.000E+00

     total cpu time spent up to now is        2.0 secs

     End of self-consistent calculation

          k = 0.0000 0.0000 0.0000 (   137 PWs)   bands (ev):

    10.0665  10.0665  17.0883  17.0883  17.0883  17.0883  18.0496  18.0496
    20.4829  20.4829

          k =-0.1111 0.1111-0.1111 (   128 PWs)   bands (ev):

    10.6392  10.6392  16.9893  16.9893  17.2450  17.2450  18.2008  18.2008
    20.2737  20.2737

          k =-0.2222 0.2222-0.2222 (   132 PWs)   bands (ev):

    12.0403  12.0403  16.8240  16.8240  17.3746  17.3746  18.5506  18.5506
    20.2066  20.2066

          k =-0.3333 0.3333-0.3333 (   138 PWs)   bands (ev):

    13.0392  13.0392  17.1371  17.1371  17.9630  17.9630  18.2427  18.2427
    21.2180  21.2180

          k =-0.4444 0.4444-0.4444 (   129 PWs)   bands (ev):

    13.1255  13.1255  16.8751  16.8751  17.8743  17.8743  20.4473  20.4473
    22.1879  22.1879

          k = 0.0000 0.2222 0.0000 (   125 PWs)   bands (ev):

    10.8331  10.8331  16.7570  16.7570  17.4567  17.4567  18.3258  18.3258
    19.9274  19.9274

          k =-0.1111 0.3333-0.1111 (   132 PWs)   bands (ev):

    12.0022  12.0022  16.3517  16.3517  17.6510  17.6510  18.7807  18.7807
    19.7280  19.7280

          k =-0.2222 0.4444-0.2222 (   136 PWs)   bands (ev):

    13.3021  13.3021  16.6223  16.6223  17.2788  17.2788  18.5877  18.5877
    21.0020  21.0020

          k =-0.3333 0.5556-0.3333 (   132 PWs)   bands (ev):

    13.5845  13.5845  16.8150  16.8150  17.9817  17.9817  18.5797  18.5797
    22.5070  22.5070

          k = 0.5556-0.3333 0.5556 (   129 PWs)   bands (ev):

    13.5821  13.5821  16.7150  16.7150  17.9296  17.9296  19.4313  19.4313
    22.3980  22.3980

          k = 0.4444-0.2222 0.4444 (   131 PWs)   bands (ev):

    13.6266  13.6266  16.9624  16.9624  17.9304  17.9304  18.2355  18.2355
    21.2177  21.2177

          k = 0.3333-0.1111 0.3333 (   136 PWs)   bands (ev):

    12.9921  12.9921  16.5172  16.5172  17.4412  17.4412  18.6780  18.6780
    19.8826  19.8826

          k = 0.2222-0.0000 0.2222 (   133 PWs)   bands (ev):

    11.5233  11.5233  16.6577  16.6577  17.4878  17.4878  18.5446  18.5446
    19.7813  19.7813

          k = 0.0000 0.4444 0.0000 (   133 PWs)   bands (ev):

    12.7207  12.7207  15.6745  15.6745  18.0229  18.0229  19.4993  19.4993
    19.5407  19.5407

          k =-0.1111 0.5556-0.1111 (   130 PWs)   bands (ev):

    13.7544  13.7544  15.2911  15.2911  17.7140  17.7140  19.7521  19.7521
    21.0307  21.0307

          k =-0.2222 0.6667-0.2222 (   130 PWs)   bands (ev):

    14.2240  14.2240  15.7662  15.7662  17.4185  17.4185  19.4477  19.4477
    22.6776  22.6776

          k = 0.6667-0.2222 0.6667 (   125 PWs)   bands (ev):

    14.4503  14.4503  16.0668  16.0668  17.7795  17.7795  19.1169  19.1169
    22.4920  22.4920

          k = 0.5556-0.1111 0.5556 (   131 PWs)   bands (ev):

    14.8127  14.8127  16.3260  16.3260  17.2884  17.2884  18.9181  18.9181
    21.2479  21.2479

          k = 0.4444 0.0000 0.4444 (   135 PWs)   bands (ev):

    14.5041  14.5041  16.1829  16.1829  17.0211  17.0211  18.9827  18.9827
    19.9428  19.9428

          k = 0.0000 0.6667 0.0000 (   129 PWs)   bands (ev):

    13.6990  13.6990  14.5502  14.5502  19.3060  19.3060  21.1082  21.1082
    21.2689  21.2689

          k =-0.1111 0.7778-0.1111 (   129 PWs)   bands (ev):

    13.7762  13.7762  14.4150  14.4150  19.4923  19.4923  21.2449  21.2449
    22.7582  22.7582

          k = 0.7778-0.1111 0.7778 (   128 PWs)   bands (ev):

    14.1127  14.1127  15.0413  15.0413  18.6975  18.6975  20.7036  20.7036
    22.7526  22.7526

          k = 0.6667-0.0000 0.6667 (   122 PWs)   bands (ev):

    14.7631  14.7631  15.9448  15.9448  17.5062  17.5062  19.9392  19.9392
    21.8314  21.8314

          k = 0.0000 0.8889 0.0000 (   121 PWs)   bands (ev):

    13.2740  13.2740  13.8890  13.8890  22.2413  22.2413  22.3358  22.3358
    23.1414  23.1414

          k = 0.8889 0.0000 0.8889 (   122 PWs)   bands (ev):

    13.4571  13.4571  14.0853  14.0853  20.9121  20.9121  22.0130  22.0130
    23.2345  23.2345

          k =-0.2222 0.4444 0.0000 (   135 PWs)   bands (ev):

    13.2690  13.2690  15.8895  15.8895  17.4653  17.4653  19.3759  19.3759
    19.7153  19.7153

          k =-0.3333 0.5556-0.1111 (   132 PWs)   bands (ev):

    14.3309  14.3309  16.2534  16.2534  16.8230  16.8230  19.1535  19.1535
    21.0265  21.0265

          k = 0.5556-0.3333 0.7778 (   127 PWs)   bands (ev):

    14.3870  14.3870  16.2370  16.2370  17.7211  17.7211  18.8651  18.8651
    22.2238  22.2238

          k =-0.2222 0.6667 0.0000 (   126 PWs)   bands (ev):

    14.3266  14.3266  14.9725  14.9725  17.6872  17.6872  20.8922  20.8922
    21.2418  21.2418

          k = 0.6667-0.2222 0.8889 (   129 PWs)   bands (ev):

    14.6402  14.6402  15.4160  15.4160  17.3975  17.3975  20.3470  20.3470
    22.4234  22.4234

          k = 0.5556-0.1111 0.7778 (   124 PWs)   bands (ev):

    15.1034  15.1034  15.7493  15.7493  17.1462  17.1462  19.7692  19.7692
    22.2938  22.2938

          k = 0.4444 0.0000 0.6667 (   130 PWs)   bands (ev):

    15.6497  15.6497  15.9277  15.9277  16.1605  16.1605  19.7972  19.7972
    21.3067  21.3067

          k = 0.7778-0.1111 1.0000 (   127 PWs)   bands (ev):

    13.8542  13.8542  14.4114  14.4114  19.4645  19.4645  21.6251  21.6251
    23.0159  23.0159

          k = 0.6667-0.0000 0.8889 (   129 PWs)   bands (ev):

    14.3665  14.3665  15.1393  15.1393  18.2743  18.2743  20.6339  20.6339
    22.9901  22.9901

          k = 0.5556-0.1111 1.0000 (   125 PWs)   bands (ev):

    14.9554  14.9554  15.9197  15.9197  16.8122  16.8122  20.0934  20.0934
    22.9653  22.9653

     highest occupied level (ev):    23.2345

!    total energy              =     -69.41031082 Ry
     estimated scf accuracy    <          4.5E-10 Ry

     The total energy is the sum of the following terms:
     one-electron contribution =      21.99907141 Ry
     hartree contribution      =       2.88919885 Ry
     xc contribution           =     -28.80055142 Ry
     ewald contribution        =     -65.49802966 Ry

     convergence has been achieved in   6 iterations

     negative rho (up, down):  2.370E-04 0.000E+00

     Forces acting on atoms (cartesian axes, Ry/au):

     atom    1 type  1   force =     0.00000000    0.00000000    0.00000000

     Total force =     0.000000     Total SCF correction =     0.000000


     Computing stress (Cartesian axis) and pressure


     negative rho (up, down):  2.370E-04 0.000E+00
          total   stress  (Ry/bohr**3)                   (kbar)     P=      906.39
   0.00616148  -0.00000000   0.00000000          906.39       -0.00        0.00
  -0.00000000   0.00616148  -0.00000000           -0.00      906.39       -0.00
   0.00000000  -0.00000000   0.00616148            0.00       -0.00      906.39


     Writing all to output data dir ./platinum.save/ :
     XML data file, charge density, pseudopotentials, collected wavefunctions

     init_run     :      0.24s CPU      0.27s WALL (       1 calls)
     electrons    :      1.43s CPU      1.65s WALL (       1 calls)
     forces       :      0.03s CPU      0.03s WALL (       1 calls)
     stress       :      0.13s CPU      0.13s WALL (       1 calls)

     Called by init_run:
     wfcinit      :      0.06s CPU      0.07s WALL (       1 calls)
     potinit      :      0.01s CPU      0.01s WALL (       1 calls)
     hinit0       :      0.16s CPU      0.17s WALL (       1 calls)

     Called by electrons:
     c_bands      :      1.14s CPU      1.34s WALL (       7 calls)
     sum_band     :      0.23s CPU      0.25s WALL (       7 calls)
     v_of_rho     :      0.00s CPU      0.00s WALL (       7 calls)
     newd         :      0.07s CPU      0.07s WALL (       7 calls)
     mix_rho      :      0.00s CPU      0.00s WALL (       7 calls)

     Called by c_bands:
     init_us_2    :      0.02s CPU      0.02s WALL (     595 calls)
     cegterg      :      1.08s CPU      1.27s WALL (     245 calls)

     Called by *egterg:
     cdiaghg      :      0.08s CPU      0.09s WALL (    1297 calls)
     h_psi        :      0.67s CPU      0.79s WALL (    1367 calls)
     s_psi        :      0.09s CPU      0.11s WALL (    1367 calls)
     g_psi        :      0.01s CPU      0.01s WALL (    1087 calls)

     Called by h_psi:
     h_psi:calbec :      0.07s CPU      0.09s WALL (    1367 calls)
     vloc_psi     :      0.48s CPU      0.57s WALL (    1367 calls)
     add_vuspsi   :      0.09s CPU      0.11s WALL (    1367 calls)

     General routines
     calbec       :      0.10s CPU      0.12s WALL (    1787 calls)
     fft          :      0.02s CPU      0.03s WALL (      79 calls)
     ffts         :      0.00s CPU      0.00s WALL (      28 calls)
     fftw         :      0.36s CPU      0.43s WALL (   43364 calls)

     Parallel routines

     PWSCF        :      1.93s CPU      2.19s WALL


   This run was terminated on:  21:59:48   4Nov2024            

=------------------------------------------------------------------------------=
   JOB DONE.
=------------------------------------------------------------------------------=
