LAMMPS (29 Aug 2024)
units                  real
atom_style	       full
bond_style	       harmonic
angle_style	       harmonic
boundary	       p p p

neighbor 2.0 bin
neigh_modify every 1 delay 0 check yes

# ============= read data and parameters files

pair_style            lj/cut 10.0
pair_modify           shift yes mix arithmetic

read_data             equilb_100ps.data
Reading data file ...
  orthogonal box = (-0.1495 -0.193001 -38.75) to (32.8505 32.806999 41.25)
  1 by 2 by 4 MPI processor grid
  reading atoms ...
  4343 atoms
  reading velocities ...
  4343 velocities
  scanning bonds ...
  2 = max bonds/atom
  scanning angles ...
  3 = max angles/atom
  scanning dihedrals ...
  8 = max dihedrals/atom
  scanning impropers ...
  2 = max impropers/atom
  orthogonal box = (-0.1495 -0.193001 -38.75) to (32.8505 32.806999 41.25)
  1 by 2 by 4 MPI processor grid
  reading bonds ...
  3907 bonds
  reading angles ...
  4615 angles
  reading dihedrals ...
  6903 dihedrals
  reading impropers ...
  1144 impropers
Finding 1-2 1-3 1-4 neighbors ...
  special bond factors lj:    0        0        0       
  special bond factors coul:  0        0        0       
     3 = max # of 1-2 neighbors
     6 = max # of 1-3 neighbors
    18 = max # of 1-4 neighbors
    18 = max # of special neighbors
  special bonds CPU = 0.001 seconds
  read_data CPU = 0.083 seconds

pair_coeff  1  1      0.0859  3.3997
pair_coeff  2  2      0.0559  2.757
pair_coeff  3  3      0.0859  3.3997
pair_coeff  4  4      0.0859  3.3997
pair_coeff  5  5      0.0000  1.0000
pair_coeff  6  6      0.1598  3.0330
pair_coeff  7  7      0.1521  3.1507

bond_coeff     1      938.0    1.42
bond_coeff     2      190.96   1.149
bond_coeff     3      938.0    1.42
bond_coeff     4      938.0    1.42
bond_coeff     5      450.0    0.9572

angle_coeff    1      126      120.0
angle_coeff    2      126      120.0
angle_coeff    3      126      120.0
angle_coeff    4      55.0     104.52
angle_coeff    5      295.4    180.0


group  water     type 5  7
2985 atoms in group water
group  memb      type 1
432 atoms in group memb
group  CG1       type 3
448 atoms in group CG1
group  CG2       type 4
448 atoms in group CG2
group  CG3       type 3 4
896 atoms in group CG3

dump dump_1 all custom 500 dump.lammpstrj id type x y z

timestep 1.0
thermo_style custom step time cpu temp pe ke etotal press vol
thermo 100

fix                    myshk1  water shake 1.0e-5 200 0 b 5 a 4
Finding SHAKE clusters ...
       0 = # of size 2 clusters
       0 = # of size 3 clusters
       0 = # of size 4 clusters
     995 = # of frozen angles
  find clusters CPU = 0.000 seconds

fix                    freeze memb setforce 0.0 0.0 0.0

fix                    pistonkeep CG3  setforce  0.0   0.0    NULL
fix                    myforce1   CG1  aveforce  NULL  NULL  -1.439     #P=250 bars
fix                    freeze1    CG2  setforce 0.0 0.0 0.0

fix                    mynvt  all nvt temp 300 300 100.0
run                    500000

CITE-CITE-CITE-CITE-CITE-CITE-CITE-CITE-CITE-CITE-CITE-CITE-CITE

Your simulation uses code contributions which should be cited:

- Type Label Framework: https://doi.org/10.1021/acs.jpcb.3c08419

@Article{Gissinger24,
 author = {Jacob R. Gissinger, Ilia Nikiforov, Yaser Afshar, Brendon Waters, Moon-ki Choi, Daniel S. Karls, Alexander Stukowski, Wonpil Im, Hendrik Heinz, Axel Kohlmeyer, and Ellad B. Tadmor},
 title = {Type Label Framework for Bonded Force Fields in LAMMPS},
 journal = {J. Phys. Chem. B},
 year =    2024,
 volume =  128,
 number =  13,
 pages =   {3282–-3297}
}

CITE-CITE-CITE-CITE-CITE-CITE-CITE-CITE-CITE-CITE-CITE-CITE-CITE

Generated 21 of 21 mixed pair_coeff terms from arithmetic mixing rule
WARNING: Dihedrals are defined but no dihedral style is set (../force.cpp:207)
WARNING: Likewise 1-4 special neighbor interactions != 1.0 (../force.cpp:209)
WARNING: Impropers are defined but no improper style is set (../force.cpp:212)
Neighbor list info ...
  update: every = 1 steps, delay = 0 steps, check = yes
  max neighbors/atom: 2000, page size: 100000
  master list distance cutoff = 12
  ghost atom cutoff = 12
  binsize = 6, bins = 6 6 14
  1 neighbor lists, perpetual/occasional/extra = 1 0 0
  (1) pair lj/cut, perpetual
      attributes: half, newton on
      pair build: half/bin/newton
      stencil: half/bin/3d
      bin: standard
Per MPI rank memory allocation (min/avg/max) = 12.35 | 12.82 | 13.41 Mbytes
   Step          Time           CPU            Temp          PotEng         KinEng         TotEng         Press          Volume    
         0   0              0              297.1293       7536.492       2964.3911      10500.883      57565.199      87120        
       100   100            0.44475937     311.89035      7518.8469      3111.6587      10630.506      57703.384      87120        
       200   200            0.89146922     321.90671      7574.0361      3211.5896      10785.626      58017.519      87120        
       300   300            1.3307785      335.23515      7660.0719      3344.5644      11004.636      58736.041      87120        
       400   400            1.79089        348.71146      7713.6143      3479.0144      11192.629      59158.987      87120        
       500   500            2.2624015      358.8932       7730.0603      3580.5954      11310.656      59517.612      87120        
       600   600            2.7816269      363.45428      7763.4956      3626.1002      11389.596      60006.032      87120        
       700   700            3.3527731      365.4323       7796.5309      3645.8345      11442.365      60290.783      87120        
       800   800            3.980921       360.75908      7867.7392      3599.2108      11466.95       60932.573      87120        
       900   900            4.6661434      354.93708      7928.1858      3541.126       11469.312      61338.621      87120        
      1000   1000           5.3996002      350.04435      7967.6341      3492.3124      11459.947      61721.652      87120        
      1100   1100           6.1662309      344.97583      8033.1076      3441.745       11474.853      62385.14       87120        
      1200   1200           6.9721593      331.80705      8209.6341      3310.363       11519.997      63215.457      87120        
      1300   1300           7.8022934      314.7808       8494.1393      3140.496       11634.635      64629.25       87120        
      1400   1400           8.6866646      302.02998      8869.2323      3013.284       11882.516      66319.311      87120        
      1500   1500           9.6261976      289.53793      9366.6683      2888.6537      12255.322      68453.338      87120        
      1600   1600           10.626146      275.57066      10003.989      2749.3055      12753.294      71042.514      87120        
      1700   1700           11.638269      291.05391      10439.866      2903.7783      13343.644      72721.027      87120        
      1800   1800           12.689557      311.65569      10602.102      3109.3175      13711.419      73391.376      87120        
      1900   1900           13.712217      320.6531       10448.494      3199.0826      13647.577      72744.639      87120        
      2000   2000           14.735283      315.8372       9917.5977      3151.0355      13068.633      70672.39       87120        
      2100   2100           15.721482      303.62833      9340.513       3029.2303      12369.743      68285.431      87120        
      2200   2200           16.664971      292.36055      8844.6204      2916.8144      11761.435      66106.593      87120        
      2300   2300           17.576387      284.79074      8486.1263      2841.292       11327.418      64498.053      87120        
      2400   2400           18.44644       290.27067      8258.2223      2895.964       11154.186      63352.38       87120        
      2500   2500           19.283559      290.17831      8146.7136      2895.0426      11041.756      62634.531      87120        
      2600   2600           20.124525      297.23213      8006.2328      2965.417       10971.65       61962.782      87120        
      2700   2700           20.957753      296.90944      7950.9145      2962.1976      10913.112      61496.265      87120        
      2800   2800           21.773874      295.02179      7941.7464      2943.3649      10885.111      61377.166      87120        
      2900   2900           22.58116       300.01357      7908.5679      2993.1668      10901.735      61030.977      87120        
      3000   3000           23.368218      301.25461      7929.179       3005.5483      10934.727      61063.004      87120        
      3100   3100           24.143748      301.56214      7979.3031      3008.6165      10987.92       61212.159      87120        
      3200   3200           24.91353       310.13858      7950.4119      3094.1816      11044.594      61106.854      87120        
      3300   3300           25.694872      303.87379      7961.5919      3031.6793      10993.271      61196.157      87120        
      3400   3400           26.473127      295.13616      8062.4526      2944.506       11006.959      61560.85       87120        
      3500   3500           27.273284      302.39941      8109.026       3016.9698      11125.996      61990.016      87120        
      3600   3600           28.095593      305.50871      8189.281       3047.9905      11237.271      62464.667      87120        
      3700   3700           28.913924      305.17725      8279.3788      3044.6836      11324.062      62993.852      87120        
      3800   3800           29.754697      301.03561      8425.4199      3003.3634      11428.783      63809.235      87120        
      3900   3900           30.607733      301.35305      8549.6361      3006.5305      11556.167      64301.828      87120        
      4000   4000           31.477772      295.23644      8772.0254      2945.5064      11717.532      65387.467      87120        
      4100   4100           32.37609       296.99208      8971.9405      2963.0221      11934.963      66365.506      87120        
      4200   4200           33.311897      295.88443      9170.3072      2951.9712      12122.278      67178.568      87120        
      4300   4300           34.251326      301.09411      9301.0208      3003.947       12304.968      67812.952      87120        
      4400   4400           35.205921      302.4259       9379.5137      3017.234       12396.748      68091.019      87120        
      4500   4500           36.156602      309.43468      9300.1183      3087.159       12387.277      67853.07       87120        
      4600   4600           37.129266      300.81056      9255.4169      3001.1182      12256.535      67584.928      87120        
      4700   4700           38.092435      301.03013      9051.1615      3003.3087      12054.47       66781.376      87120        
      4800   4800           39.040148      296.87391      8881.2059      2961.8431      11843.049      66053.987      87120        
      4900   4900           39.986014      296.39182      8725.3416      2957.0333      11682.375      65230.67       87120        
      5000   5000           40.893262      293.55301      8633.97        2928.7112      11562.681      64785.375      87120        
      5100   5100           41.752731      296.29363      8493.219       2956.0538      11449.273      64118.436      87120        
      5200   5200           42.609139      294.54105      8415.9892      2938.5687      11354.558      63630.792      87120        
      5300   5300           43.445746      304.6358       8269.5495      3039.2817      11308.831      63078.062      87120        
      5400   5400           44.273427      302.75811      8222.6813      3020.5484      11243.23       62755.202      87120        
      5500   5500           45.094765      296.80372      8232.7691      2961.1428      11193.912      62838.977      87120        
      5600   5600           45.917168      296.49752      8204.4812      2958.0879      11162.569      62624.315      87120        
      5700   5700           46.740459      300.39281      8199.079       2996.9503      11196.029      62528.386      87120        
      5800   5800           47.547889      302.62609      8229.6922      3019.2313      11248.923      62730.937      87120        
      5900   5900           48.367214      301.34696      8276.131       3006.4696      11282.601      62959.142      87120        
      6000   6000           49.193732      296.1384       8338.7503      2954.5051      11293.255      63301.812      87120        
      6100   6100           50.006396      303.11047      8349.4307      3024.0638      11373.495      63464.214      87120        
      6200   6200           50.81515       302.82291      8414.3864      3021.1949      11435.581      63781.69       87120        
      6300   6300           51.654991      301.35385      8515.3046      3006.5384      11521.843      64297.73       87120        
      6400   6400           52.508768      309.27036      8525.1693      3085.5196      11610.689      64443.228      87120        
      6500   6500           53.396783      299.32889      8697.4058      2986.3359      11683.742      65086.765      87120        
      6600   6600           54.305534      301.24211      8782.2376      3005.4236      11787.661      65515.452      87120        
      6700   6700           55.229364      299.86342      8855.8526      2991.6687      11847.521      65894.971      87120        
      6800   6800           56.165334      299.73743      8884.4126      2990.4117      11874.824      65982.255      87120        
      6900   6900           57.084917      293.76585      8886.9801      2930.8347      11817.815      66023.363      87120        
      7000   7000           58.020131      291.67428      8869.3361      2909.9676      11779.304      65983.45       87120        
      7100   7100           58.931532      305.52289      8804.8122      3048.132       11852.944      65725.258      87120        
      7200   7200           59.844852      301.74183      8785.8375      3010.4092      11796.247      65545.242      87120        
      7300   7300           60.749151      297.30219      8708.1246      2966.1159      11674.241      65177.598      87120        
      7400   7400           61.648222      296.74595      8560.1711      2960.5664      11520.738      64532.713      87120        
      7500   7500           62.540301      297.55478      8481.3963      2968.6359      11450.032      64217.31       87120        
      7600   7600           63.427827      299.39548      8482.8127      2987.0002      11469.813      64086.602      87120        
      7700   7700           64.301408      297.04006      8450.4843      2963.5008      11413.985      63888.055      87120        
      7800   7800           65.161325      298.78498      8389.4929      2980.9094      11370.402      63619.824      87120        
      7900   7900           66.011167      300.72562      8356.5591      3000.2707      11356.83       63513.894      87120        
      8000   8000           66.856412      298.80919      8443.7075      2981.1509      11424.858      63742.342      87120        
      8100   8100           67.685337      304.22892      8418.8335      3035.2223      11454.056      63621.224      87120        
      8200   8200           68.52037       300.6101       8415.4318      2999.1182      11414.55       63647.864      87120        
      8300   8300           69.348104      299.38443      8435.4355      2986.89        11422.326      63748.345      87120        
      8400   8400           70.180814      297.23207      8487.097       2965.4164      11452.513      63910.783      87120        
      8500   8500           71.024453      305.08329      8458.6188      3043.7462      11502.365      63926.045      87120        
      8600   8600           71.882189      294.73162      8527.4207      2940.47        11467.891      64167.516      87120        
      8700   8700           72.746718      298.19582      8559.139       2975.0314      11534.17       64351.493      87120        
      8800   8800           73.616964      301.5296       8625.9545      3008.2919      11634.246      64678.01       87120        
      8900   8900           74.499677      300.57502      8645.6329      2998.7682      11644.401      64756.391      87120        
      9000   9000           75.409354      296.49395      8693.0582      2958.0523      11651.111      65050.626      87120        
      9100   9100           76.285607      299.61933      8723.8727      2989.2335      11713.106      65147.469      87120        
      9200   9200           77.172118      301.564        8707.0498      3008.6351      11715.685      65123.932      87120        
      9300   9300           78.053224      291.61875      8717.6684      2909.4136      11627.082      65072.213      87120        
      9400   9400           78.963168      294.41848      8699.5038      2937.3458      11636.85       65104.26       87120        
      9500   9500           79.842603      299.55806      8696.8375      2988.6222      11685.46       65092.229      87120        
      9600   9600           80.741071      299.53697      8693.6165      2988.4118      11682.028      65056.36       87120        
      9700   9700           81.646833      307.33452      8566.2094      3066.2062      11632.416      64602.143      87120        
      9800   9800           82.536642      292.02141      8605.3608      2913.4308      11518.792      64637.307      87120        
      9900   9900           83.424884      297.56249      8466.7437      2968.7129      11435.457      64192.636      87120        
     10000   10000          84.301323      301.39497      8484.7626      3006.9487      11491.711      64182.067      87120        
     10100   10100          85.162435      302.34503      8479.7231      3016.4272      11496.15       64017.366      87120        
     10200   10200          86.036619      297.40218      8479.399       2967.1136      11446.513      64067.973      87120        
     10300   10300          86.898244      295.20925      8485.828       2945.2351      11431.063      64029.132      87120        
     10400   10400          87.757226      303.20957      8440.7524      3025.0525      11465.805      63841.619      87120        
     10500   10500          88.630304      306.50281      8447.7397      3057.9084      11505.648      63908.859      87120        
     10600   10600          89.494582      298.85617      8474.4761      2981.6196      11456.096      63958.519      87120        
     10700   10700          90.359966      298.74191      8422.554       2980.4797      11403.034      63840.856      87120        
     10800   10800          91.224562      299.12435      8438.2122      2984.2952      11422.507      63882.845      87120        
     10900   10900          92.094287      299.01944      8510.2224      2983.2485      11493.471      64152.92       87120        
     11000   11000          92.965878      303.95193      8518.7091      3032.4589      11551.168      64278.84       87120        
     11100   11100          93.829568      306.41202      8484.4989      3057.0027      11541.502      64145.911      87120        
     11200   11200          94.694139      296.91677      8548.684       2962.2707      11510.955      64267.067      87120        
     11300   11300          95.562354      301.39857      8525.4569      3006.9846      11532.442      64276.181      87120        
     11400   11400          96.452018      305.67231      8500.8681      3049.6227      11550.491      64170.433      87120        
     11500   11500          97.330154      299.68964      8527.6446      2989.935       11517.58       64294.537      87120        
     11600   11600          98.209917      291.57123      8582.7609      2908.9395      11491.7        64489.844      87120        
     11700   11700          99.105411      298.00396      8596.815       2973.1173      11569.932      64524.328      87120        
     11800   11800          99.99829       308.67454      8541.9226      3079.5752      11621.498      64371.793      87120        
     11900   11900          100.89412      299.95001      8570.0749      2992.5327      11562.608      64487.728      87120        
     12000   12000          101.77591      302.48031      8516.6659      3017.7769      11534.443      64306.345      87120        
     12100   12100          102.62767      299.86919      8523.7438      2991.7263      11515.47       64194.195      87120        
     12200   12200          103.51003      298.71999      8552.336       2980.261       11532.597      64315.283      87120        
     12300   12300          104.38196      296.89006      8571.156       2962.0042      11533.16       64375.142      87120        
     12400   12400          105.25722      301.04867      8524.0235      3003.4937      11527.517      64250.717      87120        
     12500   12500          106.13912      301.75964      8534.9956      3010.5869      11545.582      64255.852      87120        
     12600   12600          107.00783      305.46055      8507.0874      3047.5101      11554.598      64161.842      87120        
     12700   12700          107.87209      301.6743       8452.8969      3009.7355      11462.632      63986.597      87120        
     12800   12800          108.72301      296.64735      8431.1413      2959.5827      11390.724      63838.769      87120        
     12900   12900          109.58557      299.88198      8431.7316      2991.8539      11423.585      63854.599      87120        
     13000   13000          110.45269      304.31978      8458.2267      3036.1288      11494.355      63964.884      87120        
     13100   13100          111.31278      298.59565      8478.7192      2979.0205      11457.74       64020.645      87120        
     13200   13200          112.17892      295.42039      8452.3985      2947.3416      11399.74       63947.31       87120        
     13300   13300          113.05417      300.19286      8476.9708      2994.9555      11471.926      64052.264      87120        
     13400   13400          113.9289       302.27309      8487.9098      3015.7095      11503.619      64089.361      87120        
     13500   13500          114.81494      296.8898       8505.6675      2962.0016      11467.669      64076.288      87120        
     13600   13600          115.69567      294.60792      8500.1447      2939.2358      11439.38       64180.365      87120        
     13700   13700          116.57797      295.0896       8504.334       2944.0414      11448.375      64226.434      87120        
     13800   13800          117.45587      302.19811      8580.9269      3014.9614      11595.888      64468.566      87120        
     13900   13900          118.34747      303.6264       8592.1374      3029.2111      11621.349      64620.707      87120        
     14000   14000          119.21251      305.74375      8500.0986      3050.3354      11550.434      64204.729      87120        
     14100   14100          120.08229      301.1964       8510.1567      3004.9676      11515.124      64282.461      87120        
     14200   14200          120.95432      298.87573      8537.7386      2981.8148      11519.553      64343.658      87120        
     14300   14300          121.84253      299.38721      8555.5103      2986.9177      11542.428      64332.697      87120        
     14400   14400          122.71534      303.23921      8559.5046      3025.3482      11584.853      64436.79       87120        
     14500   14500          123.59029      304.49154      8514.4584      3037.8425      11552.301      64233.413      87120        
     14600   14600          124.46782      295.51813      8488.8007      2948.3168      11437.117      64111.735      87120        
     14700   14700          125.33585      299.44946      8448.5433      2987.5387      11436.082      63973.618      87120        
     14800   14800          126.20666      304.35111      8482.7091      3036.4414      11519.15       64048.378      87120        
     14900   14900          127.0886       306.31455      8472.6972      3056.0302      11528.727      64053.623      87120        
     15000   15000          127.96146      292.89906      8472.8543      2922.1869      11395.041      63897.401      87120        
     15100   15100          128.82369      292.94676      8464.4136      2922.6629      11387.076      63943.236      87120        
     15200   15200          129.68929      300.49554      8445.5605      2997.9752      11443.536      63865.512      87120        
     15300   15300          130.55132      303.39367      8478.5618      3026.8893      11505.451      63927.675      87120        
     15400   15400          131.42816      302.2221       8519.3214      3015.2007      11534.522      64184.271      87120        
     15500   15500          132.30075      298.12042      8490.4233      2974.2792      11464.703      63982.595      87120        
     15600   15600          133.1843       295.81326      8464.1215      2951.2612      11415.383      63967.189      87120        
     15700   15700          134.05066      302.8956       8417.2202      3021.9201      11439.14       63843.495      87120        
     15800   15800          134.92679      296.95794      8523.711       2962.6815      11486.392      64143.049      87120        
     15900   15900          135.78749      305.97348      8519.5835      3052.6274      11572.211      64229.425      87120        
     16000   16000          136.65388      302.97022      8496.1872      3022.6646      11518.852      64077.14       87120        
     16100   16100          137.50895      304.62878      8448.2467      3039.2117      11487.458      63992.641      87120        
     16200   16200          138.36928      295.37382      8535.5617      2946.8771      11482.439      64285.705      87120        
     16300   16300          139.23165      302.66653      8546.3661      3019.6348      11566.001      64301.529      87120        
     16400   16400          140.09904      298.68088      8644.349       2979.8708      11624.22       64739.256      87120        
     16500   16500          140.96166      307.72571      8565.5104      3070.1091      11635.62       64430.49       87120        
     16600   16600          141.82629      294.55303      8570.1721      2938.6882      11508.86       64446.888      87120        
     16700   16700          142.69848      293.38896      8574.67        2927.0745      11501.745      64412.903      87120        
     16800   16800          143.56198      304.68943      8522.9004      3039.8167      11562.717      64156.01       87120        
     16900   16900          144.42518      296.11656      8573.9919      2954.2872      11528.279      64337.734      87120        
     17000   17000          145.2728       292.70297      8516.8877      2920.2305      11437.118      64145.465      87120        
     17100   17100          146.14276      293.32557      8518.941       2926.4421      11445.383      64198.701      87120        
     17200   17200          146.97995      300.9436       8490.9346      3002.4455      11493.38       64027.925      87120        
     17300   17300          147.82811      296.54279      8531.4845      2958.5395      11490.024      64106.205      87120        
     17400   17400          148.67906      301.21705      8472.1798      3005.1736      11477.353      63986.993      87120        
     17500   17500          149.54801      300.46555      8430.9437      2997.676       11428.62       63765.253      87120        
     17600   17600          150.40582      291.35346      8493.9574      2906.7668      11400.724      64085.622      87120        
     17700   17700          151.28288      302.35914      8495.1074      3016.568       11511.675      64090.639      87120        
     17800   17800          152.14008      303.12897      8500.585       3024.2484      11524.833      64033.65       87120        
     17900   17900          152.99387      300.25259      8457.4397      2995.5515      11452.991      63930.872      87120        
     18000   18000          153.844        295.86505      8489.562       2951.7779      11441.34       63956.158      87120        
     18100   18100          154.68775      297.08592      8527.4744      2963.9583      11491.433      64143.075      87120        
     18200   18200          155.52838      310.32385      8494.7241      3096.03        11590.754      64090.87       87120        
     18300   18300          156.38508      304.40304      8503.8594      3036.9595      11540.819      64013.606      87120        
     18400   18400          157.23402      297.60609      8498.3001      2969.1479      11467.448      64033.033      87120        
     18500   18500          158.08487      298.49505      8475.374       2978.0168      11453.391      63886.55       87120        
     18600   18600          158.93853      300.62419      8488.6495      2999.2588      11487.908      64016.61       87120        
     18700   18700          159.78469      302.5106       8525.9821      3018.0791      11544.061      64163.837      87120        
     18800   18800          160.63704      301.44625      8504.2246      3007.4603      11511.685      63992.015      87120        
     18900   18900          161.4919       296.2647       8500.641       2955.7652      11456.406      64076.416      87120        
     19000   19000          162.34412      297.32635      8513.7785      2966.357       11480.135      64054.546      87120        
     19100   19100          163.19617      308.22741      8452.1656      3075.1144      11527.28       63886.683      87120        
     19200   19200          164.0421       305.67221      8503.8907      3049.6217      11553.512      64082.721      87120        
     19300   19300          164.90166      294.65668      8532.9289      2939.7222      11472.651      64105.833      87120        
     19400   19400          165.74493      300.19202      8468.9769      2994.9471      11463.924      63917.542      87120        
     19500   19500          166.60579      297.98144      8550.6639      2972.8927      11523.557      64192.704      87120        
     19600   19600          167.43932      310.64477      8515.4951      3099.2318      11614.727      64189.484      87120        
     19700   19700          168.2851       302.92306      8561.6747      3022.1941      11583.869      64307.92       87120        
     19800   19800          169.13619      292.58252      8585.719       2919.0289      11504.748      64309.03       87120        
     19900   19900          169.98757      301.22367      8543.1928      3005.2397      11548.432      64264.47       87120        
     20000   20000          170.83739      301.21889      8540.268       3005.192       11545.46       64165.681      87120        
     20100   20100          171.67577      295.53465      8577.9608      2948.4816      11526.442      64352.243      87120        
     20200   20200          172.51272      297.90216      8491.2697      2972.1017      11463.371      64024.086      87120        
     20300   20300          173.33819      290.07975      8503.7096      2894.0593      11397.769      63936.235      87120        
     20400   20400          174.17871      297.71735      8524.113       2970.2579      11494.371      64074.576      87120        
     20500   20500          175.01153      303.93354      8503.0457      3032.2754      11535.321      63992.353      87120        
     20600   20600          175.86379      300.33714      8487.2145      2996.3949      11483.609      63916.717      87120        
     20700   20700          176.71161      299.85996      8444.7036      2991.6342      11436.338      63798.39       87120        
     20800   20800          177.5672       296.86603      8457.6631      2961.7645      11419.428      63738.374      87120        
     20900   20900          178.40813      302.52017      8526.9876      3018.1746      11545.162      64070.648      87120        
     21000   21000          179.2455       307.67928      8523.1699      3069.6458      11592.816      64097.693      87120        
     21100   21100          180.07794      305.14233      8472.4656      3044.3353      11516.801      63946.431      87120        
     21200   21200          180.9106       303.86743      8451.3316      3031.6158      11482.947      63873.856      87120        
     21300   21300          181.74578      299.59729      8477.4777      2989.0136      11466.491      63859.569      87120        
     21400   21400          182.5847       299.27781      8456.5173      2985.8262      11442.344      63865.043      87120        
     21500   21500          183.43443      301.16068      8483.4934      3004.6112      11488.105      63953.399      87120        
     21600   21600          184.27194      308.72084      8523.8729      3080.0372      11603.91       64174.222      87120        
     21700   21700          185.09909      308.02731      8526.276       3073.118       11599.394      64214.358      87120        
     21800   21800          185.93793      297.20999      8522.7912      2965.196       11487.987      64044.554      87120        
     21900   21900          186.77519      294.2024       8542.9467      2935.1901      11478.137      64194.146      87120        
     22000   22000          187.61045      303.74991      8479.2553      3030.4433      11509.699      63943.247      87120        
     22100   22100          188.43879      302.32649      8519.3112      3016.2422      11535.553      64138.535      87120        
     22200   22200          189.2692       295.70592      8511.4209      2950.1903      11461.611      64125.492      87120        
     22300   22300          190.09088      296.04819      8470.2287      2953.6051      11423.834      63904.969      87120        
     22400   22400          190.9238       302.18789      8475.0971      3014.8595      11489.957      63970.004      87120        
     22500   22500          191.75635      309.93856      8450.3245      3092.1861      11542.511      63833.743      87120        
     22600   22600          192.59153      301.16873      8489.0678      3004.6916      11493.759      63963.39       87120        
     22700   22700          193.42636      303.61462      8433.9209      3029.0936      11463.015      63752.425      87120        
     22800   22800          194.25219      302.27252      8436.792       3015.7038      11452.496      63745.739      87120        
     22900   22900          195.07066      297.64304      8481.8882      2969.5165      11451.405      63875.848      87120        
     23000   23000          195.90421      300.16223      8467.2725      2994.6499      11461.922      63754.207      87120        
     23100   23100          196.73285      295.54797      8483.3337      2948.6145      11431.948      63944.267      87120        
     23200   23200          197.55176      300.62559      8433.9983      2999.2728      11433.271      63794.069      87120        
     23300   23300          198.37805      302.45353      8452.2627      3017.5097      11469.772      63760.883      87120        
     23400   23400          199.20687      303.3726       8494.3501      3026.679       11521.029      63983.239      87120        
     23500   23500          200.02008      304.18435      8433.6501      3034.7777      11468.428      63703.399      87120        
     23600   23600          200.84381      298.3133       8402.1524      2976.2035      11378.356      63562.415      87120        
     23700   23700          201.67227      293.52004      8478.367       2928.3823      11406.749      63819.555      87120        
     23800   23800          202.48954      309.72384      8420.063       3090.0439      11510.107      63710.187      87120        
     23900   23900          203.32533      305.35188      8453.7279      3046.4258      11500.154      63881.069      87120        
     24000   24000          204.14339      294.77903      8458.1948      2940.9429      11399.138      63859.033      87120        
     24100   24100          204.95443      296.70613      8483.7748      2960.1692      11443.944      63917.565      87120        
     24200   24200          205.78815      301.80017      8501.5009      3010.9912      11512.492      63951.178      87120        
     24300   24300          206.60082      300.05828      8535.8029      2993.6128      11529.416      64143.493      87120        
     24400   24400          207.4123       295.52883      8525.7689      2948.4236      11474.192      64150.221      87120        
     24500   24500          208.23622      291.94547      8474.3762      2912.6732      11387.049      63837.351      87120        
     24600   24600          209.05048      297.35782      8440.6431      2966.671       11407.314      63806.308      87120        
     24700   24700          209.87161      313.89417      8398.2573      3131.6503      11529.908      63708.64       87120        
     24800   24800          210.68374      303.78606      8423.9775      3030.804       11454.782      63726.462      87120        
     24900   24900          211.50804      295.45693      8447.0153      2947.7062      11394.722      63822.317      87120        
     25000   25000          212.32418      305.11613      8401.7876      3044.0739      11445.861      63638.285      87120        
     25100   25100          213.14185      305.20536      8456.1607      3044.964       11501.125      63815.849      87120        
     25200   25200          213.94921      307.58811      8401.1553      3068.7362      11469.892      63709.73       87120        
     25300   25300          214.76707      294.40836      8412.2102      2937.2449      11349.455      63639.108      87120        
     25400   25400          215.57154      297.28088      8420.4001      2965.9033      11386.303      63701.043      87120        
     25500   25500          216.38458      302.61734      8454.3511      3019.144       11473.495      63870.485      87120        
     25600   25600          217.20661      310.25917      8409.5716      3095.3848      11504.956      63707.633      87120        
     25700   25700          218.03008      298.952        8445.5763      2982.5757      11428.152      63804.507      87120        
     25800   25800          218.84791      301.20595      8425.9058      3005.0628      11430.969      63727.604      87120        
     25900   25900          219.67241      300.21488      8449.1917      2995.1752      11444.367      63827.321      87120        
     26000   26000          220.48268      298.71046      8453.8722      2980.166       11434.038      63852.882      87120        
     26100   26100          221.29577      296.85617      8464.7347      2961.666       11426.401      63840.943      87120        
     26200   26200          222.11474      298.96556      8476.1254      2982.711       11458.836      63941.279      87120        
     26300   26300          222.92025      305.47135      8479.0244      3047.6178      11526.642      63984.634      87120        
     26400   26400          223.73641      303.36906      8514.8404      3026.6437      11541.484      64127.811      87120        
     26500   26500          224.5412       296.64611      8486.3476      2959.5703      11445.918      64037.216      87120        
     26600   26600          225.34399      295.27802      8459.9667      2945.9213      11405.888      63876.405      87120        
     26700   26700          226.16318      299.96078      8438.2239      2992.6401      11430.864      63789.336      87120        
     26800   26800          226.98799      301.52146      8447.8686      3008.2106      11456.079      63798.959      87120        
     26900   26900          227.79869      303.54009      8448.6236      3028.35        11476.974      63842.003      87120        
     27000   27000          228.61609      301.30135      8393.1963      3006.0146      11399.211      63599.262      87120        
     27100   27100          229.4088       290.71112      8386.8314      2900.3583      11287.19       63530.617      87120        
     27200   27200          230.21427      294.94921      8419.3776      2942.6408      11362.018      63641.395      87120        
     27300   27300          231.02333      304.72629      8434.7779      3040.1845      11474.962      63789.908      87120        
     27400   27400          231.83056      309.23274      8402.1366      3085.1443      11487.281      63657.186      87120        
     27500   27500          232.64104      298.65596      8431.4589      2979.6222      11411.081      63712.643      87120        
     27600   27600          233.45478      292.07536      8496.3245      2913.969       11410.294      63949.138      87120        
     27700   27700          234.25159      299.01467      8487.9452      2983.2009      11471.146      63918.445      87120        
     27800   27800          235.06374      303.7021       8457.6317      3029.9664      11487.598      63755.204      87120        
     27900   27900          235.88008      301.78003      8476.1566      3010.7903      11486.947      63933.951      87120        
     28000   28000          236.68126      292.83202      8538.9191      2921.5181      11460.437      64101.051      87120        
     28100   28100          237.48801      301.21922      8423.387       3005.1952      11428.582      63672.604      87120        
     28200   28200          238.30287      295.27275      8474.0229      2945.8686      11419.892      63900.834      87120        
     28300   28300          239.10858      301.07844      8429.0002      3003.7907      11432.791      63722.239      87120        
     28400   28400          239.91413      296.5341       8480.3285      2958.4529      11438.781      63917.373      87120        
     28500   28500          240.72906      302.71427      8436.2366      3020.111       11456.348      63790.808      87120        
     28600   28600          241.53331      303.46479      8423.9588      3027.5988      11451.558      63689.778      87120        
     28700   28700          242.33933      296.37073      8456.5569      2956.823       11413.38       63830.917      87120        
     28800   28800          243.13958      298.47217      8388.817       2977.7886      11366.606      63524.859      87120        
     28900   28900          243.94253      292.95275      8411.8151      2922.7226      11334.538      63637.184      87120        
     29000   29000          244.72937      303.13287      8412.6829      3024.2873      11436.97       63665.318      87120        
     29100   29100          245.52182      308.96637      8405.959       3082.4868      11488.446      63613.15       87120        
     29200   29200          246.31642      299.90006      8423.2467      2992.0343      11415.281      63697.451      87120        
     29300   29300          247.10155      301.78293      8388.3655      3010.8192      11399.185      63498.587      87120        
     29400   29400          247.89785      298.11866      8433.5625      2974.2617      11407.824      63663.073      87120        
     29500   29500          248.68205      301.57554      8432.945       3008.7502      11441.695      63696.944      87120        
     29600   29600          249.48514      303.84788      8430.8925      3031.4208      11462.313      63708.82       87120        
     29700   29700          250.28559      298.10116      8405.903       2974.087       11379.99       63618.857      87120        
     29800   29800          251.07389      295.60022      8392.3725      2949.1357      11341.508      63549.362      87120        
     29900   29900          251.87236      303.39967      8386.9849      3026.9491      11413.934      63611.443      87120        
     30000   30000          252.65655      303.82518      8425.7781      3031.1943      11456.972      63681.084      87120        
     30100   30100          253.44943      304.6609       8403.258       3039.5321      11442.79       63589.431      87120        
     30200   30200          254.23339      303.56922      8395.3582      3028.6407      11423.999      63651.469      87120        
     30300   30300          255.02529      304.84612      8365.9632      3041.38        11407.343      63530.321      87120        
     30400   30400          255.82092      295.43524      8424.7143      2947.4898      11372.204      63634.777      87120        
     30500   30500          256.62991      303.9299       8415.6658      3032.2391      11447.905      63645.745      87120        
     30600   30600          257.42779      306.72354      8431.8686      3060.1106      11491.979      63633.118      87120        
     30700   30700          258.23473      298.3413       8429.4618      2976.4829      11405.945      63686.769      87120        
     30800   30800          259.03163      297.26407      8425.161       2965.7356      11390.897      63600.228      87120        
     30900   30900          259.816        297.01066      8452.4786      2963.2074      11415.686      63691.7        87120        
     31000   31000          260.60079      303.41624      8445.4882      3027.1144      11472.603      63759.201      87120        
     31100   31100          261.38728      302.36971      8462.9851      3016.6734      11479.659      63777.313      87120        
     31200   31200          262.16202      296.26912      8426.8571      2955.8093      11382.666      63725.645      87120        
     31300   31300          262.95254      295.74619      8429.6416      2950.592       11380.234      63703.072      87120        
     31400   31400          263.74813      301.45978      8436.2188      3007.5952      11443.814      63687.525      87120        
     31500   31500          264.53149      303.86622      8403.4992      3031.6038      11435.103      63626.826      87120        
     31600   31600          265.30979      298.4795       8410.8022      2977.8617      11388.664      63599.858      87120        
     31700   31700          266.10205      293.1609       8374.5674      2924.7993      11299.367      63425.862      87120        
     31800   31800          266.88356      287.4032       8365.4219      2867.356       11232.778      63348.809      87120        
     31900   31900          267.66489      295.86637      8361.8414      2951.7911      11313.632      63377.256      87120        
     32000   32000          268.45801      297.75562      8400.5448      2970.6397      11371.185      63536.861      87120        
     32100   32100          269.22825      302.41929      8400.089       3017.1681      11417.257      63554.165      87120        
     32200   32200          270.00587      302.35983      8424.4699      3016.5748      11441.045      63650.692      87120        
     32300   32300          270.79329      299.72889      8425.8963      2990.3266      11416.223      63612.14       87120        
     32400   32400          271.58657      293.03332      8419.764       2923.5264      11343.29       63642.64       87120        
     32500   32500          272.38222      296.53252      8436.0349      2958.4371      11394.472      63679.519      87120        
     32600   32600          273.16304      306.28347      8378.3399      3055.7201      11434.06       63470.544      87120        
     32700   32700          273.93848      301.42808      8392.5975      3007.279       11399.877      63540.995      87120        
     32800   32800          274.72361      297.90759      8399.0433      2972.1559      11371.199      63559.101      87120        
     32900   32900          275.50826      300.42798      8405.4406      2997.3012      11402.742      63590.887      87120        
     33000   33000          276.27981      301.40555      8413.7202      3007.0543      11420.774      63643.389      87120        
     33100   33100          277.05556      295.31591      8446.4767      2946.2993      11392.776      63762.142      87120        
     33200   33200          277.83101      301.47979      8411.1771      3007.7949      11418.972      63596.482      87120        
     33300   33300          278.59608      307.36317      8403.7691      3066.4921      11470.261      63612.923      87120        
     33400   33400          279.37961      298.40316      8435.2526      2977.1001      11412.353      63687.497      87120        
     33500   33500          280.1585       298.89649      8359.4541      2982.0219      11341.476      63405.768      87120        
     33600   33600          280.92694      301.6176       8318.4663      3009.1698      11327.636      63261.396      87120        
     33700   33700          281.70312      298.07415      8374.7694      2973.8176      11348.587      63419.599      87120        
     33800   33800          282.48249      305.9147       8348.0166      3052.0409      11400.058      63237.492      87120        
     33900   33900          283.26444      305.37213      8351.7925      3046.6279      11398.42       63346.854      87120        
     34000   34000          284.03124      298.45043      8317.9492      2977.5717      11295.521      63172.826      87120        
     34100   34100          284.8059       297.10819      8356.0011      2964.1804      11320.181      63333.626      87120        
     34200   34200          285.58314      303.59614      8359.304       3028.9093      11388.213      63392.521      87120        
     34300   34300          286.35889      303.71055      8372.2438      3030.0507      11402.294      63522.416      87120        
     34400   34400          287.12549      295.07359      8368.9099      2943.8817      11312.792      63478.033      87120        
     34500   34500          287.9054       301.82549      8346.044       3011.2439      11357.288      63413.329      87120        
     34600   34600          288.68618      302.6951       8375.8515      3019.9198      11395.771      63530.083      87120        
     34700   34700          289.45962      299.50537      8437.1907      2988.0965      11425.287      63722.952      87120        
     34800   34800          290.24424      305.39227      8396.1026      3046.8288      11442.931      63644.17       87120        
     34900   34900          291.03137      298.66518      8433.1178      2979.7142      11412.832      63788.256      87120        
     35000   35000          291.81386      302.46152      8374.7015      3017.5894      11392.291      63538.58       87120        
     35100   35100          292.59187      302.10144      8360.8247      3013.9969      11374.822      63496.009      87120        
     35200   35200          293.35374      295.18282      8436.2756      2944.9715      11381.247      63710.94       87120        
     35300   35300          294.11557      302.11101      8428.465       3014.0924      11442.557      63688.893      87120        
     35400   35400          294.88731      311.27223      8388.386       3105.4919      11493.878      63537.577      87120        
     35500   35500          295.65776      308.77286      8387.4469      3080.5562      11468.003      63494.011      87120        
     35600   35600          296.43554      297.78168      8346.2262      2970.8997      11317.126      63291.765      87120        
     35700   35700          297.20509      294.40871      8324.2558      2937.2483      11261.504      63198.094      87120        
     35800   35800          297.96172      300.53169      8313.119       2998.3359      11311.455      63186.069      87120        
     35900   35900          298.72804      305.03838      8332.5752      3043.2981      11375.873      63278.727      87120        
     36000   36000          299.48712      304.94077      8307.9124      3042.3243      11350.237      63113.8        87120        
     36100   36100          300.24672      298.52576      8312.7608      2978.3232      11291.084      63123.9        87120        
     36200   36200          301.01487      294.11523      8296.2303      2934.3204      11230.551      63045.919      87120        
     36300   36300          301.77074      289.5568       8307.5793      2888.842       11196.421      63046.827      87120        
     36400   36400          302.52937      302.73049      8303.0841      3020.2729      11323.357      63143.584      87120        
     36500   36500          303.29925      299.70094      8408.7892      2990.0477      11398.837      63515.09       87120        
     36600   36600          304.06681      304.8295       8352.2312      3041.2142      11393.445      63307.949      87120        
     36700   36700          304.82413      299.68385      8353.3269      2989.8773      11343.204      63337.418      87120        
     36800   36800          305.59311      300.81708      8351.868       3001.1832      11353.051      63358.588      87120        
     36900   36900          306.36913      297.02337      8389.8019      2963.3342      11353.136      63475.74       87120        
     37000   37000          307.13164      304.26835      8387.9184      3035.6157      11423.534      63513.965      87120        
     37100   37100          307.8834       307.32738      8429.049       3066.135       11495.184      63643.533      87120        
     37200   37200          308.63588      301.80886      8415.9523      3011.078       11427.03       63622.983      87120        
     37300   37300          309.40459      300.73491      8372.5351      3000.3634      11372.899      63411.065      87120        
     37400   37400          310.17181      298.5641       8405.6768      2978.7057      11384.383      63614.79       87120        
     37500   37500          310.92866      303.237        8399.832       3025.3262      11425.158      63569.796      87120        
     37600   37600          311.68781      304.83679      8374.4066      3041.2869      11415.694      63381.241      87120        
     37700   37700          312.45371      295.46512      8315.9555      2947.7879      11263.743      63161.036      87120        
     37800   37800          313.20347      295.77176      8276.3111      2950.8472      11227.158      62958.098      87120        
     37900   37900          313.96499      302.78879      8246.28        3020.8545      11267.135      62834.834      87120        
     38000   38000          314.71553      300.36151      8292.3834      2996.6381      11289.022      63006.701      87120        
     38100   38100          315.47673      302.04764      8271.3883      3013.4602      11284.849      62925.35       87120        
     38200   38200          316.23426      299.75078      8233.916       2990.5449      11224.461      62865.942      87120        
     38300   38300          316.99478      292.74641      8280.3868      2920.664       11201.051      62986.535      87120        
     38400   38400          317.75895      303.41051      8280.8853      3027.0573      11307.943      63067.603      87120        
     38500   38500          318.51486      308.29904      8336.4936      3075.829       11412.323      63302.754      87120        
     38600   38600          319.27741      308.3075       8326.8689      3075.9134      11402.782      63266.645      87120        
     38700   38700          320.03195      300.63806      8369.9931      2999.3971      11369.39       63474.791      87120        
     38800   38800          320.79633      300.36591      8396.5417      2996.682       11393.224      63495.167      87120        
     38900   38900          321.55247      299.03616      8407.9024      2983.4154      11391.318      63624.744      87120        
     39000   39000          322.31499      292.22173      8404.8768      2915.4294      11320.306      63494.076      87120        
     39100   39100          323.07773      291.006        8369.4149      2903.3003      11272.715      63368.85       87120        
     39200   39200          323.82472      301.29994      8356.2308      3006.0006      11362.231      63375.477      87120        
     39300   39300          324.5862       309.67706      8313.383       3089.5772      11402.96       63137.906      87120        
     39400   39400          325.34006      300.14569      8344.0486      2994.4849      11338.533      63272.787      87120        
     39500   39500          326.08907      294.69206      8308.2959      2940.0753      11248.371      63136.793      87120        
     39600   39600          326.84524      298.78102      8273.9496      2980.8699      11254.819      63011.021      87120        
     39700   39700          327.59973      297.32643      8310.2031      2966.3578      11276.561      63154.827      87120        
     39800   39800          328.34986      294.96022      8370.0367      2942.7507      11312.787      63317.452      87120        
     39900   39900          329.11276      305.23363      8337.5395      3045.2461      11382.786      63242.134      87120        
     40000   40000          329.86469      298.89923      8343.8169      2982.0493      11325.866      63226.095      87120        
     40100   40100          330.60881      298.82282      8314.674       2981.2869      11295.961      63134.098      87120        
     40200   40200          331.35364      299.35542      8335.1723      2986.6005      11321.773      63235.886      87120        
     40300   40300          332.09072      297.37007      8385.8606      2966.7932      11352.654      63348.713      87120        
     40400   40400          332.84295      302.95946      8327.4748      3022.5573      11350.032      63161.334      87120        
     40500   40500          333.59067      295.28244      8325.1464      2945.9654      11271.112      63139.614      87120        
     40600   40600          334.36217      296.7461       8280.199       2960.568       11240.767      63032.317      87120        
     40700   40700          335.11399      299.76795      8316.609       2990.7163      11307.325      63207.785      87120        
     40800   40800          335.86381      304.65594      8366.4511      3039.4826      11405.934      63301.568      87120        
     40900   40900          336.61475      304.4381       8362.0499      3037.3093      11399.359      63366.114      87120        
     41000   41000          337.3533       300.10073      8334.9839      2994.0363      11329.02       63172.117      87120        
     41100   41100          338.09653      297.47789      8333.3564      2967.8688      11301.225      63208.376      87120        
     41200   41200          338.84088      303.8912       8335.9719      3031.853       11367.825      63270.061      87120        
     41300   41300          339.58247      310.69615      8358.0493      3099.7444      11457.794      63266.187      87120        
     41400   41400          340.31876      302.95468      8332.3813      3022.5096      11354.891      63136.957      87120        
     41500   41500          341.06885      302.46733      8274.8299      3017.6473      11292.477      62982.152      87120        
     41600   41600          341.82223      300.1722       8264.1776      2994.7493      11258.927      62911.918      87120        
     41700   41700          342.57917      297.49343      8260.9512      2968.0239      11228.975      62881.379      87120        
     41800   41800          343.33827      302.42199      8226.4101      3017.195       11243.605      62727.121      87120        
     41900   41900          344.08065      303.05308      8300.3487      3023.4912      11323.84       63026.281      87120        
     42000   42000          344.81604      307.05826      8264.8316      3063.4501      11328.282      62864.198      87120        
     42100   42100          345.55615      297.55034      8263.7093      2968.5916      11232.301      62851.144      87120        
     42200   42200          346.29479      295.70997      8261.8526      2950.2308      11212.083      62828.191      87120        
     42300   42300          347.03415      299.63775      8281.7084      2989.4173      11271.126      62875.301      87120        
     42400   42400          347.78808      302.48001      8278.8514      3017.7738      11296.625      62934.166      87120        
     42500   42500          348.52944      294.17268      8307.4559      2934.8935      11242.349      62995.341      87120        
     42600   42600          349.26977      298.20665      8233.8243      2975.1396      11208.964      62723.152      87120        
     42700   42700          350.00783      301.94971      8251.5093      3012.4832      11263.993      62838.382      87120        
     42800   42800          350.74627      309.20324      8273.7312      3084.85        11358.581      62905.877      87120        
     42900   42900          351.48495      303.59897      8357.1755      3028.9375      11386.113      63270.553      87120        
     43000   43000          352.2114       296.42616      8336.556       2957.376       11293.932      63144.263      87120        
     43100   43100          352.94457      293.21875      8332.8172      2925.3764      11258.194      63155.336      87120        
     43200   43200          353.67294      299.81975      8325.8858      2991.233       11317.119      63201.304      87120        
     43300   43300          354.42164      303.06719      8386.1225      3023.632       11409.754      63273.508      87120        
     43400   43400          355.15959      306.54923      8315.6641      3058.3715      11374.036      63108.839      87120        
     43500   43500          355.89989      300.76008      8314.374       3000.6145      11314.989      63007.725      87120        
     43600   43600          356.63097      296.4483       8306.7856      2957.5968      11264.382      62944.9        87120        
     43700   43700          357.37275      296.17687      8309.018       2954.8889      11263.907      62957.721      87120        
     43800   43800          358.11591      308.04694      8278.548       3073.3138      11351.862      62792.328      87120        
     43900   43900          358.84267      301.33968      8304.7323      3006.397       11311.129      62950.945      87120        
     44000   44000          359.58591      299.2237       8291.6123      2985.2864      11276.899      62899.517      87120        
     44100   44100          360.31231      301.92265      8249.0412      3012.2132      11261.254      62798.52       87120        
     44200   44200          361.05384      299.69         8247.7372      2989.9386      11237.676      62848.873      87120        
     44300   44300          361.78553      299.18201      8256.231       2984.8705      11241.102      62687.323      87120        
     44400   44400          362.52535      298.24292      8332.9692      2975.5014      11308.471      63089.684      87120        
     44500   44500          363.26173      310.69747      8269.4699      3099.7576      11369.227      62909.249      87120        
     44600   44600          364.00128      298.893        8323.6883      2981.9871      11305.675      62979.956      87120        
     44700   44700          364.73015      299.35411      8336.7892      2986.5875      11323.377      63289.949      87120        
     44800   44800          365.47323      302.03085      8323.5997      3013.2927      11336.892      63178.533      87120        
     44900   44900          366.21034      295.75926      8380.1372      2950.7225      11330.86       63356.784      87120        
     45000   45000          366.94932      300.47625      8397.1002      2997.7828      11394.883      63484.233      87120        
     45100   45100          367.68545      310.97435      8350.9116      3102.52        11453.432      63266.179      87120        
     45200   45200          368.41668      304.73841      8334.023       3040.3054      11374.328      63287.301      87120        
     45300   45300          369.14959      296.91972      8366.1442      2962.3001      11328.444      63304.748      87120        
     45400   45400          369.86903      301.25007      8305.7489      3005.5031      11311.252      63109.296      87120        
     45500   45500          370.59885      300.60669      8274.1164      2999.0842      11273.201      63002.279      87120        
     45600   45600          371.32908      290.51452      8278.1702      2898.3969      11176.567      62933.463      87120        
     45700   45700          372.05854      292.34594      8242.2791      2916.6685      11158.948      62764.38       87120        
     45800   45800          372.79213      299.79606      8254.5629      2990.9967      11245.56       62846.142      87120        
     45900   45900          373.51511      302.3065       8251.7229      3016.0428      11267.766      62819.518      87120        
     46000   46000          374.24466      300.96797      8238.3299      3002.6886      11241.019      62790.482      87120        
     46100   46100          374.96703      294.54052      8285.2404      2938.5634      11223.804      62934.824      87120        
     46200   46200          375.68732      303.5543       8273.1032      3028.4918      11301.595      62924.91       87120        
     46300   46300          376.41005      307.71433      8320.4806      3069.9955      11390.476      63127.682      87120        
     46400   46400          377.12442      303.04303      8291.7173      3023.391       11315.108      62992.764      87120        
     46500   46500          377.8477       299.94667      8292.8958      2992.4993      11285.395      63031.91       87120        
     46600   46600          378.57653      294.64222      8357.2947      2939.578       11296.873      63181.761      87120        
     46700   46700          379.28974      303.24594      8285.8577      3025.4154      11311.273      62980.308      87120        
     46800   46800          380.00163      297.43161      8288.967       2967.4071      11256.374      62993.241      87120        
     46900   46900          380.72658      292.68271      8312.0324      2920.0285      11232.061      63060.21       87120        
     47000   47000          381.4506       303.753        8278.9035      3030.4742      11309.378      62945.858      87120        
     47100   47100          382.16116      309.10369      8298.4955      3083.8568      11382.352      63041.342      87120        
     47200   47200          382.88525      308.46204      8344.3083      3077.4552      11421.763      63173.781      87120        
     47300   47300          383.6033       300.151        8322.9433      2994.5379      11317.481      63099.755      87120        
     47400   47400          384.31203      298.58229      8303.5715      2978.8872      11282.459      63076.23       87120        
     47500   47500          385.03146      297.34336      8326.5947      2966.5267      11293.121      63216.378      87120        
     47600   47600          385.74125      305.03298      8271.3067      3043.2443      11314.551      62999.747      87120        
     47700   47700          386.46132      301.51824      8269.1385      3008.1785      11277.317      62934.01       87120        
     47800   47800          387.16819      295.02847      8268.0592      2943.4315      11211.491      62941.084      87120        
     47900   47900          387.88758      299.26098      8244.7012      2985.6583      11230.36       62763.841      87120        
     48000   48000          388.60475      305.59318      8267.3511      3048.8332      11316.184      62933.122      87120        
     48100   48100          389.31572      314.11543      8217.8583      3133.8577      11351.716      62781.12       87120        
     48200   48200          390.01685      303.86691      8250.337       3031.6107      11281.948      62812.985      87120        
     48300   48300          390.73419      302.95212      8235.3774      3022.484       11257.861      62839.882      87120        
     48400   48400          391.44743      296.42888      8277.6729      2957.4031      11235.076      62910.12       87120        
     48500   48500          392.16936      299.07745      8205.9809      2983.8273      11189.808      62751.669      87120        
     48600   48600          392.88183      294.26715      8243.6393      2935.836       11179.475      62853.389      87120        
     48700   48700          393.59928      307.60226      8246.0916      3068.8774      11314.969      62781.521      87120        
     48800   48800          394.3118       304.40083      8311.348       3036.9374      11348.285      63061.474      87120        
     48900   48900          395.04089      303.79449      8286.9464      3030.8881      11317.835      62971.759      87120        
     49000   49000          395.75469      297.81768      8311.622       2971.2588      11282.881      63076.999      87120        
     49100   49100          396.45514      298.48187      8317.8097      2977.8853      11295.695      63089.769      87120        
     49200   49200          397.1664       297.23391      8335.1766      2965.4348      11300.611      63191.485      87120        
     49300   49300          397.88003      301.3958       8289.8024      3006.9569      11296.759      63045.764      87120        
     49400   49400          398.59579      302.73584      8294.4215      3020.3262      11314.748      63049.647      87120        
     49500   49500          399.30526      311.47459      8245.0547      3107.5107      11352.565      62830.372      87120        
     49600   49600          400.01991      303.7543       8222.7337      3030.4872      11253.221      62715.118      87120        
     49700   49700          400.72663      293.58372      8259.4196      2929.0176      11188.437      62818.985      87120        
     49800   49800          401.42387      299.85447      8235.2278      2991.5794      11226.807      62717.074      87120        
     49900   49900          402.12977      308.11211      8227.5253      3073.964       11301.489      62747.688      87120        
     50000   50000          402.82521      303.54107      8265.1493      3028.3598      11293.509      62878.677      87120        
     50100   50100          403.51761      296.7175       8243.414       2960.2826      11203.697      62769.39       87120        
     50200   50200          404.21979      294.03728      8290.8341      2933.5427      11224.377      62958.768      87120        
     50300   50300          404.91226      303.99349      8264.5513      3032.8735      11297.425      62932.317      87120        
     50400   50400          405.62121      308.10055      8240.1287      3073.8487      11313.977      62884.876      87120        
     50500   50500          406.31721      297.46035      8295.628       2967.6939      11263.322      63047.652      87120        
     50600   50600          407.02697      300.86841      8285.2371      3001.6953      11286.932      63054.249      87120        
     50700   50700          407.72642      300.83964      8268.3315      3001.4082      11269.74       62930.895      87120        
     50800   50800          408.43989      295.66922      8275.1406      2949.8241      11224.965      62880.175      87120        
     50900   50900          409.14154      288.46234      8295.2766      2877.9228      11173.199      62992.627      87120        
     51000   51000          409.84874      296.62114      8289.1157      2959.3213      11248.437      62924.659      87120        
     51100   51100          410.55153      305.99437      8255.3326      3052.8358      11308.168      62848.086      87120        
     51200   51200          411.2543       304.3717       8211.2328      3036.6468      11247.88       62724.023      87120        
     51300   51300          411.9554       295.12983      8229.7381      2944.4428      11174.181      62687.222      87120        
     51400   51400          412.64497      297.61759      8228.6103      2969.2626      11197.873      62721.362      87120        
     51500   51500          413.34895      300.06897      8254.8417      2993.7195      11248.561      62686.217      87120        
     51600   51600          414.05261      305.66362      8253.0463      3049.536       11302.582      62785.504      87120        
     51700   51700          414.76356      296.15002      8289.8044      2954.621       11244.425      62989.584      87120        
     51800   51800          415.46368      284.97133      8292.1726      2843.0938      11135.266      62836.89       87120        
     51900   51900          416.17142      294.58093      8296.5919      2938.9666      11235.559      62920.822      87120        
     52000   52000          416.87498      301.81547      8291.8416      3011.1439      11302.986      62884.553      87120        
     52100   52100          417.57548      305.66812      8276.7328      3049.5809      11326.314      62804.782      87120        
     52200   52200          418.27529      298.94238      8268.2807      2982.4797      11250.76       62870.358      87120        
     52300   52300          418.97809      297.39569      8237.1573      2967.0488      11204.206      62699.007      87120        
     52400   52400          419.67996      294.29807      8296.9872      2936.1445      11233.132      62906.792      87120        
     52500   52500          420.38635      301.36801      8296.4652      3006.6797      11303.145      63001.622      87120        
     52600   52600          421.092        307.17987      8269.5852      3064.6633      11334.248      62914.396      87120        
     52700   52700          421.79927      302.24728      8279.7977      3015.452       11295.25       62957.741      87120        
     52800   52800          422.50667      297.85063      8269.5488      2971.5876      11241.136      62876.627      87120        
     52900   52900          423.21302      296.41544      8258.0915      2957.269       11215.36       62896.709      87120        
     53000   53000          423.90957      302.09495      8253.7094      3013.9322      11267.642      62889.86       87120        
     53100   53100          424.6152       309.7736       8288.6799      3090.5404      11379.22       63022.981      87120        
     53200   53200          425.3189       304.78173      8288.5273      3040.7376      11329.265      63001.325      87120        
     53300   53300          426.01986      298.01364      8252.1663      2973.2139      11225.38       62755.626      87120        
     53400   53400          426.7181       298.49565      8246.3359      2978.0228      11224.359      62785.991      87120        
     53500   53500          427.4159       304.07102      8242.7368      3033.647       11276.384      62827.03       87120        
     53600   53600          428.11476      307.08764      8280.0734      3063.7431      11343.816      62899.607      87120        
     53700   53700          428.80945      304.94058      8225.1541      3042.3224      11267.476      62757.122      87120        
     53800   53800          429.51473      295.14304      8247.2804      2944.5746      11191.855      62754.587      87120        
     53900   53900          430.21786      301.07534      8233.6001      3003.7598      11237.36       62737.982      87120        
     54000   54000          430.91928      298.73521      8291.5347      2980.4128      11271.948      62994.795      87120        
     54100   54100          431.61881      299.7834       8315.2338      2990.8704      11306.104      63047.698      87120        
     54200   54200          432.32641      302.02081      8299.4207      3013.1925      11312.613      63041.747      87120        
     54300   54300          433.03381      294.38768      8328.9441      2937.0385      11265.983      63115.406      87120        
     54400   54400          433.74439      298.65122      8335.9913      2979.5749      11315.566      63190.239      87120        
     54500   54500          434.45213      306.65475      8336.0372      3059.4243      11395.462      63194.995      87120        
     54600   54600          435.15931      302.52382      8314.5641      3018.2109      11332.775      63090.777      87120        
     54700   54700          435.85052      291.23894      8307.4728      2905.6243      11213.097      63000.27       87120        
     54800   54800          436.54765      300.88581      8260.9272      3001.8689      11262.796      62824.736      87120        
     54900   54900          437.24448      306.05537      8250.4222      3053.4444      11303.867      62873.802      87120        
     55000   55000          437.94224      296.10873      8306.7647      2954.209       11260.974      62988.069      87120        
     55100   55100          438.63725      294.59558      8258.6889      2939.1128      11197.802      62739.634      87120        
     55200   55200          439.33199      292.40291      8266.4911      2917.237       11183.728      62856.698      87120        
     55300   55300          440.02754      303.79705      8279.2084      3030.9137      11310.122      62889.284      87120        
     55400   55400          440.72181      306.79551      8289.6928      3060.8286      11350.521      62965.578      87120        
     55500   55500          441.42024      299.78072      8325.1398      2990.8436      11315.983      63136.795      87120        
     55600   55600          442.11913      300.63678      8278.0581      2999.3844      11277.442      62910.878      87120        
     55700   55700          442.81336      297.5152       8252.8467      2968.2411      11221.088      62840.138      87120        
     55800   55800          443.49777      287.98872      8287.0937      2873.1976      11160.291      62904.513      87120        
     55900   55900          444.19401      295.19272      8289.3482      2945.0702      11234.418      62959.506      87120        
     56000   56000          444.90192      303.40484      8294.1935      3027.0007      11321.194      63024.916      87120        
     56100   56100          445.61841      299.50939      8278.3182      2988.1367      11266.455      62954.467      87120        
     56200   56200          446.32041      296.31175      8246.8028      2956.2345      11203.037      62805.927      87120        
     56300   56300          447.02578      300.35551      8239.5621      2996.5782      11236.14       62764.313      87120        
     56400   56400          447.72413      302.96631      8252.5293      3022.6256      11275.155      62831.527      87120        
     56500   56500          448.41739      300.35176      8260.7856      2996.5408      11257.326      62983.433      87120        
     56600   56600          449.1088       298.77068      8257.8036      2980.7668      11238.57       62889.575      87120        
     56700   56700          449.80137      300.00049      8242.3733      2993.0363      11235.41       62820.673      87120        
     56800   56800          450.49806      297.37671      8283.1248      2966.8594      11249.984      62944.039      87120        
     56900   56900          451.19706      301.57677      8274.7754      3008.7625      11283.538      62874.395      87120        
     57000   57000          451.89228      300.20131      8253.6621      2995.0398      11248.702      62872.235      87120        
[...]
    486300   486300         3082.5672      299.49788      7747.8435      2988.0218      10735.865      61251.681      87120        
    486400   486400         3083.2235      298.4693       7666.2466      2977.76        10644.007      60943.287      87120        
    486500   486500         3083.8873      292.58467      7685.7782      2919.0503      10604.829      60906.893      87120        
    486600   486600         3084.5629      300.93097      7691.9383      3002.3195      10694.258      61023.876      87120        
    486700   486700         3085.2263      305.84702      7696.1288      3051.3657      10747.495      61050.081      87120        
    486800   486800         3085.8939      299.59092      7718.4831      2988.9501      10707.433      61121.907      87120        
    486900   486900         3086.5477      297.83128      7688.693       2971.3945      10660.088      60977.992      87120        
    487000   487000         3087.2128      307.0838       7610.419       3063.7048      10674.124      60678.505      87120        
    487100   487100         3087.8689      314.9925       7655.6202      3142.6081      10798.228      60910.832      87120        
    487200   487200         3088.5352      309.82087      7703.7868      3091.012       10794.799      61031.493      87120        
    487300   487300         3089.1964      297.34773      7741.2772      2966.5703      10707.847      61188.109      87120        
    487400   487400         3089.8653      303.64374      7657.1443      3029.3841      10686.528      60902.233      87120        
    487500   487500         3090.524       296.86938      7690.0177      2961.7979      10651.816      60908.575      87120        
    487600   487600         3091.194       303.23619      7637.9274      3025.3181      10663.246      60742.642      87120        
    487700   487700         3091.8489      301.94591      7676.4906      3012.4452      10688.936      60908.221      87120        
    487800   487800         3092.5041      300.8816       7689.5834      3001.8269      10691.41       61018.83       87120        
    487900   487900         3093.1586      295.60451      7704.167       2949.1786      10653.346      61059.413      87120        
    488000   488000         3093.8154      299.78997      7680.5144      2990.9359      10671.45       60949.818      87120        
    488100   488100         3094.4619      304.60115      7673.4138      3038.936       10712.35       60866.21       87120        
    488200   488200         3095.1149      306.68659      7636.0529      3059.7419      10695.795      60802.103      87120        
    488300   488300         3095.7734      293.10443      7704.6033      2924.2359      10628.839      61042.14       87120        
    488400   488400         3096.4351      296.93063      7696.3059      2962.409       10658.715      60968.679      87120        
    488500   488500         3097.0892      303.68619      7680.2574      3029.8077      10710.065      60969.097      87120        
    488600   488600         3097.7584      305.24704      7646.2247      3045.3799      10691.605      60820.393      87120        
    488700   488700         3098.4222      296.7619       7672.03        2960.7256      10632.756      60886.447      87120        
    488800   488800         3099.069       294.57038      7718.2188      2938.8613      10657.08       61196.825      87120        
    488900   488900         3099.7309      293.62728      7781.4761      2929.4522      10710.928      61326.47       87120        
    489000   489000         3100.3897      302.47055      7731.4053      3017.6795      10749.085      61215.852      87120        
    489100   489100         3101.0282      307.1396       7660.1214      3064.2615      10724.383      60884.797      87120        
    489200   489200         3101.6748      297.04519      7678.0716      2963.5519      10641.623      60891.498      87120        
    489300   489300         3102.3154      296.94154      7668.3824      2962.5178      10630.9        60936.279      87120        
    489400   489400         3102.9582      305.5061       7669.3228      3047.9645      10717.287      60924.624      87120        
    489500   489500         3103.6088      307.17493      7728.7984      3064.614       10793.412      61158.657      87120        
    489600   489600         3104.2713      298.90553      7728.0468      2982.1121      10710.159      61212.571      87120        
    489700   489700         3104.9301      297.68341      7718.7569      2969.9192      10688.676      61068.045      87120        
    489800   489800         3105.5896      302.92336      7700.4462      3022.197       10722.643      61039.694      87120        
    489900   489900         3106.2445      294.38753      7754.2273      2937.0371      10691.264      61210.715      87120        
    490000   490000         3106.902       291.90069      7716.5598      2912.2264      10628.786      61021.595      87120        
    490100   490100         3107.5579      296.64784      7720.1114      2959.5876      10679.699      61096.847      87120        
    490200   490200         3108.2098      305.1917       7689.4539      3044.8278      10734.282      60978.538      87120        
    490300   490300         3108.8587      300.19927      7716.5067      2995.0194      10711.526      61060.439      87120        
    490400   490400         3109.499       296.17356      7744.6681      2954.8558      10699.524      61191.362      87120        
    490500   490500         3110.1494      299.97354      7726.862       2992.7674      10719.629      61124.683      87120        
    490600   490600         3110.799       307.89056      7695.0148      3071.7537      10766.768      61006.622      87120        
    490700   490700         3111.454       297.77367      7733.831       2970.8198      10704.651      61107.344      87120        
    490800   490800         3112.1032      294.42339      7705.7444      2937.3948      10643.139      61020.771      87120        
    490900   490900         3112.7543      298.14665      7720.9288      2974.5409      10695.47       61111.486      87120        
    491000   491000         3113.4123      301.86052      7718.2788      3011.5934      10729.872      61098.621      87120        
    491100   491100         3114.0519      301.66522      7693.7283      3009.6449      10703.373      60967.984      87120        
    491200   491200         3114.6957      292.72514      7726.8033      2920.4518      10647.255      61111.136      87120        
    491300   491300         3115.3415      290.54887      7726.4174      2898.7396      10625.157      61112.148      87120        
    491400   491400         3115.9887      302.60873      7690.3373      3019.0581      10709.395      60948.023      87120        
    491500   491500         3116.6376      304.68843      7687.0148      3039.8068      10726.822      61001.893      87120        
    491600   491600         3117.295       302.62776      7642.5527      3019.2479      10661.801      60840.598      87120        
    491700   491700         3117.9552      295.18149      7679.7699      2944.9582      10624.728      60907.868      87120        
    491800   491800         3118.6108      305.06859      7607.8785      3043.5996      10651.478      60739.751      87120        
    491900   491900         3119.2694      300.38966      7655.5063      2996.9189      10652.425      60821.32       87120        
    492000   492000         3119.9264      295.78071      7694.2083      2950.9365      10645.145      60957.748      87120        
    492100   492100         3120.5785      302.80346      7685.5015      3021.0009      10706.502      60931.688      87120        
    492200   492200         3121.2328      307.42314      7719.8764      3067.0903      10786.967      61086.284      87120        
    492300   492300         3121.8955      301.16558      7744.7817      3004.6601      10749.442      61176.461      87120        
    492400   492400         3122.5465      298.93716      7693.4333      2982.4277      10675.861      61004.497      87120        
    492500   492500         3123.2062      299.62996      7676.9521      2989.3396      10666.292      60949.593      87120        
    492600   492600         3123.8613      302.25226      7674.523       3015.5017      10690.025      60987.98       87120        
    492700   492700         3124.5138      298.79333      7738.7781      2980.9927      10719.771      61185.587      87120        
    492800   492800         3125.1653      302.71675      7705.007       3020.1358      10725.143      61025.915      87120        
    492900   492900         3125.8143      295.64863      7672.3214      2949.6188      10621.94       60891.781      87120        
    493000   493000         3126.4681      291.753        7715.8108      2910.7529      10626.564      61064.049      87120        
    493100   493100         3127.1196      294.78548      7758.997       2941.0073      10700.004      61177.538      87120        
    493200   493200         3127.768       301.3523       7742.0632      3006.5229      10748.586      61186.644      87120        
    493300   493300         3128.4123      305.91396      7702.504       3052.0336      10754.538      61056.688      87120        
    493400   493400         3129.0597      297.60431      7733.1598      2969.1302      10702.29       61205.839      87120        
    493500   493500         3129.7077      296.92975      7723.0136      2962.4002      10685.414      61141.353      87120        
    493600   493600         3130.347       304.638        7700.766       3039.3037      10740.07       61043.838      87120        
    493700   493700         3130.9942      306.48537      7675.1296      3057.7344      10732.864      60949.703      87120        
    493800   493800         3131.645       291.82555      7733.9021      2911.4768      10645.379      61154.641      87120        
    493900   493900         3132.2949      299.30749      7680.1817      2986.1224      10666.304      60886.587      87120        
    494000   494000         3132.9489      306.85935      7669.5241      3061.4655      10730.99       60935.517      87120        
    494100   494100         3133.6026      301.16448      7716.2754      3004.6491      10720.925      61012.699      87120        
    494200   494200         3134.2457      291.03063      7687.4874      2903.546       10591.033      60949.797      87120        
    494300   494300         3134.8927      291.84869      7706.9424      2911.7076      10618.65       61022.478      87120        
    494400   494400         3135.548       300.36788      7700.2731      2996.7016      10696.975      60963.089      87120        
    494500   494500         3136.197       301.26008      7712.5673      3005.6029      10718.17       61070.967      87120        
    494600   494600         3136.8545      298.94001      7710.7529      2982.4561      10693.209      61025.027      87120        
    494700   494700         3137.5174      297.91627      7699.4963      2972.2425      10671.739      60997.629      87120        
    494800   494800         3138.1771      304.82346      7698.5331      3041.154       10739.687      61055.254      87120        
    494900   494900         3138.8338      304.97525      7721.4299      3042.6683      10764.098      61050.704      87120        
    495000   495000         3139.5019      303.57851      7673.0625      3028.7333      10701.796      60916.271      87120        
    495100   495100         3140.1538      297.79204      7711.0256      2971.0031      10682.029      61071.31       87120        
    495200   495200         3140.8005      299.01229      7695.8412      2983.1773      10679.018      60994.695      87120        
    495300   495300         3141.4453      302.62643      7662.4655      3019.2347      10681.7        60902.827      87120        
    495400   495400         3142.0748      303.23241      7707.6856      3025.2804      10732.966      60996.257      87120        
    495500   495500         3142.7155      304.43724      7753.026       3037.3007      10790.327      61208.25       87120        
    495600   495600         3143.3599      305.14734      7700.6715      3044.3852      10745.057      61090.285      87120        
    495700   495700         3143.9988      297.93176      7694.0576      2972.397       10666.455      60986.625      87120        
    495800   495800         3144.6591      294.18027      7708.9378      2934.9693      10643.907      61019.926      87120        
    495900   495900         3145.3084      297.09823      7715.3604      2964.0811      10679.441      61012.063      87120        
    496000   496000         3145.9724      302.5713       7734.9559      3018.6847      10753.641      61047.825      87120        
    496100   496100         3146.6305      306.45121      7685.5525      3057.3936      10742.946      61007.081      87120        
    496200   496200         3147.2892      297.4856       7739.2366      2967.9457      10707.182      61151.527      87120        
    496300   496300         3147.9533      297.91425      7756.5478      2972.2223      10728.77       61205.87       87120        
    496400   496400         3148.6164      303.57691      7725.4073      3028.7174      10754.125      61158.758      87120        
    496500   496500         3149.2644      304.25446      7712.8758      3035.4772      10748.353      61041.872      87120        
    496600   496600         3149.918       297.27693      7668.5515      2965.864       10634.415      60905.527      87120        
    496700   496700         3150.5639      294.20807      7711.8446      2935.2466      10647.091      61103.343      87120        
    496800   496800         3151.2252      300.76111      7739.7643      3000.6248      10740.389      61105.631      87120        
    496900   496900         3151.8785      306.51993      7672.9306      3058.0792      10731.01       60948.552      87120        
    497000   497000         3152.5362      299.45489      7644.5271      2987.5929      10632.12       60786.629      87120        
    497100   497100         3153.1877      295.19278      7682.3051      2945.0708      10627.376      60882.445      87120        
    497200   497200         3153.827       300.59355      7727.4737      2998.9531      10726.427      61211.186      87120        
    497300   497300         3154.4806      301.69461      7743.2109      3009.9381      10753.149      61169.798      87120        
    497400   497400         3155.1377      296.62677      7746.5786      2959.3774      10705.956      61207.425      87120        
    497500   497500         3155.794       300.56293      7720.9816      2998.6476      10719.629      61112.479      87120        
    497600   497600         3156.4418      307.02485      7711.1592      3063.1167      10774.276      61002.808      87120        
    497700   497700         3157.1054      299.15002      7740.7291      2984.5513      10725.28       61223.634      87120        
    497800   497800         3157.7653      296.73561      7707.9734      2960.4633      10668.437      61081.966      87120        
    497900   497900         3158.4126      294.97591      7675.3646      2942.9072      10618.272      60844.772      87120        
    498000   498000         3159.0646      303.63496      7638.8398      3029.2965      10668.136      60803.509      87120        
    498100   498100         3159.7055      305.9825       7690.4276      3052.7174      10743.145      60985.155      87120        
    498200   498200         3160.3492      303.77368      7699.0521      3030.6805      10729.733      61012.023      87120        
    498300   498300         3160.9989      300.75954      7698.25        3000.6092      10698.859      61017.622      87120        
    498400   498400         3161.6322      301.97344      7632.1119      3012.72        10644.832      60720.28       87120        
    498500   498500         3162.2731      299.36545      7623.8396      2986.7006      10610.54       60687.868      87120        
    498600   498600         3162.9201      306.33455      7669.2432      3056.2297      10725.473      60842.72       87120        
    498700   498700         3163.5838      303.85138      7769.4987      3031.4557      10800.954      61253.089      87120        
    498800   498800         3164.2374      301.02471      7734.8578      3003.2547      10738.112      61225.418      87120        
    498900   498900         3164.8979      299.27539      7666.8918      2985.8021      10652.694      60864.018      87120        
    499000   499000         3165.5623      296.24796      7658.124       2955.5981      10613.722      60814.706      87120        
    499100   499100         3166.2155      294.10235      7719.1337      2934.1919      10653.326      61025.949      87120        
    499200   499200         3166.8606      307.28664      7732.7572      3065.7285      10798.486      61140.807      87120        
    499300   499300         3167.5173      308.75906      7729.8033      3080.4185      10810.222      61181.876      87120        
    499400   499400         3168.1825      302.31986      7710.6269      3016.1761      10726.803      60991.085      87120        
    499500   499500         3168.8438      298.59192      7663.8676      2978.9832      10642.851      60825.042      87120        
    499600   499600         3169.5077      299.92182      7645.7962      2992.2514      10638.048      60832.418      87120        
    499700   499700         3170.1675      306.48726      7656.8128      3057.7533      10714.566      60845.141      87120        
    499800   499800         3170.8268      305.22834      7723.2397      3045.1933      10768.433      61091.079      87120        
    499900   499900         3171.4764      305.35286      7729.6515      3046.4356      10776.087      61127.33       87120        
    500000   500000         3172.1419      301.55614      7666.6275      3008.5566      10675.184      60866.755      87120        
Loop time of 3172.14 on 8 procs for 500000 steps with 4343 atoms

Performance: 13.619 ns/day, 1.762 hours/ns, 157.622 timesteps/s, 684.553 katom-step/s
98.6% CPU use with 8 MPI tasks x no OpenMP threads

MPI task timing breakdown:
Section |  min time  |  avg time  |  max time  |%varavg| %total
---------------------------------------------------------------
Pair    | 4.9973     | 1158.9     | 2165.6     |2255.4 | 36.53
Bond    | 1.2153     | 17.192     | 23.635     | 223.0 |  0.54
Neigh   | 353.91     | 355.94     | 359.22     |  10.8 | 11.22
Comm    | 503.32     | 1499.8     | 2657.4     |1953.1 | 47.28
Output  | 1.3165     | 1.4173     | 1.5539     |   6.0 |  0.04
Modify  | 105.49     | 121.56     | 186.2      | 235.3 |  3.83
Other   |            | 17.38      |            |       |  0.55

Nlocal:        542.875 ave        1130 max           0 min
Histogram: 2 0 2 0 0 0 2 0 0 2
Nghost:        4657.38 ave        8155 max        1347 min
Histogram: 2 0 0 2 0 2 0 0 0 2
Neighs:         172928 ave      397672 max           0 min
Histogram: 2 2 0 0 0 0 2 0 0 2

Total # of neighbors = 1383428
Ave neighs/atom = 318.54202
Ave special neighs/atom = 6.3145291
Neighbor list builds = 35018
Dangerous builds = 0
unfix                  mynvt


write_data             nvt_500ps.data
System init for write_data ...
Generated 21 of 21 mixed pair_coeff terms from arithmetic mixing rule
WARNING: Dihedrals are defined but no dihedral style is set (../force.cpp:207)
WARNING: Likewise 1-4 special neighbor interactions != 1.0 (../force.cpp:209)
WARNING: Impropers are defined but no improper style is set (../force.cpp:212)












Total wall time: 0:52:52
