LAMMPS data file. CGCMM style. atom_style full generated by VMD/TopoTools v1.8 on Tue Sep 03 13:43:41 IST 2024
 4343 atoms
 3907 bonds
 4615 angles
 6903 dihedrals
 1144 impropers
 7 atom types
 5 bond types
 5 angle types
 1 dihedral types
 1 improper types
 -0.149500 32.850500  xlo xhi
 -0.193001 32.806999  ylo yhi
 -38.750000 41.250000  zlo zhi

# Pair Coeffs
#
# 1  CA
# 2  CM
# 3  CP1
# 4  CP2
# 5  HT
# 6  OM
# 7  OT

# Bond Coeffs
#
# 1  CA-CA
# 2  CM-OM
# 3  CP1-CP1
# 4  CP2-CP2
# 5  HT-OT

# Angle Coeffs
#
# 1  CA-CA-CA
# 2  CP1-CP1-CP1
# 3  CP2-CP2-CP2
# 4  HT-OT-HT
# 5  OM-CM-OM

# Dihedral Coeffs
#
# 1  unknown

# Improper Coeffs
#
# 1  unknown

 Masses

 1 12.010700 # CA
 2 12.010700 # CM
 3 12.010700 # CP1
 4 12.010700 # CP2
 5 1.007900 # HT
 6 15.999400 # OM
 7 15.999400 # OT

 Atoms # full

1 1 1 0.000000 1.000000 0.000000 0.000000 # CA GRA
2 2 1 0.000000 -0.228000 0.709000 0.000000 # CA GRA
3 3 1 0.000000 -0.228000 2.127000 0.000000 # CA GRA
4 4 1 0.000000 1.000000 2.836000 0.000000 # CA GRA
5 5 1 0.000000 3.456000 0.000000 0.000000 # CA GRA
6 6 1 0.000000 2.228000 0.709000 0.000000 # CA GRA
7 7 1 0.000000 2.228000 2.127000 0.000000 # CA GRA
8 8 1 0.000000 3.456000 2.836000 0.000000 # CA GRA
9 9 1 0.000000 5.912000 0.000000 0.000000 # CA GRA
10 10 1 0.000000 4.684000 0.709000 0.000000 # CA GRA
11 11 1 0.000000 4.684000 2.127000 0.000000 # CA GRA
12 12 1 0.000000 5.912000 2.836000 0.000000 # CA GRA
13 13 1 0.000000 8.368000 0.000000 0.000000 # CA GRA
14 14 1 0.000000 7.140000 0.709000 0.000000 # CA GRA
15 15 1 0.000000 7.140000 2.127000 0.000000 # CA GRA
16 16 1 0.000000 8.368000 2.836000 0.000000 # CA GRA
17 17 1 0.000000 10.824000 0.000000 0.000000 # CA GRA
18 18 1 0.000000 9.596000 0.709000 0.000000 # CA GRA
19 19 1 0.000000 9.596000 2.127000 0.000000 # CA GRA
20 20 1 0.000000 10.824000 2.836000 0.000000 # CA GRA
21 21 1 0.000000 13.280000 0.000000 0.000000 # CA GRA
22 22 1 0.000000 12.052000 0.709000 0.000000 # CA GRA
23 23 1 0.000000 12.052000 2.127000 0.000000 # CA GRA
24 24 1 0.000000 13.280000 2.836000 0.000000 # CA GRA
25 25 1 0.000000 15.736000 0.000000 0.000000 # CA GRA
26 26 1 0.000000 14.508000 0.709000 0.000000 # CA GRA
27 27 1 0.000000 14.508000 2.127000 0.000000 # CA GRA
28 28 1 0.000000 15.736000 2.836000 0.000000 # CA GRA
29 29 1 0.000000 18.191999 0.000000 0.000000 # CA GRA
30 30 1 0.000000 16.964001 0.709000 0.000000 # CA GRA
31 31 1 0.000000 16.964001 2.127000 0.000000 # CA GRA
32 32 1 0.000000 18.191999 2.836000 0.000000 # CA GRA
33 33 1 0.000000 20.648001 0.000000 0.000000 # CA GRA
34 34 1 0.000000 19.420000 0.709000 0.000000 # CA GRA
35 35 1 0.000000 19.420000 2.127000 0.000000 # CA GRA
36 36 1 0.000000 20.648001 2.836000 0.000000 # CA GRA
37 37 1 0.000000 23.104000 0.000000 0.000000 # CA GRA
38 38 1 0.000000 21.875999 0.709000 0.000000 # CA GRA
39 39 1 0.000000 21.875999 2.127000 0.000000 # CA GRA
40 40 1 0.000000 23.104000 2.836000 0.000000 # CA GRA
41 41 1 0.000000 25.559999 0.000000 0.000000 # CA GRA
42 42 1 0.000000 24.332001 0.709000 0.000000 # CA GRA
43 43 1 0.000000 24.332001 2.127000 0.000000 # CA GRA
44 44 1 0.000000 25.559999 2.836000 0.000000 # CA GRA
45 45 1 0.000000 28.017000 0.000000 0.000000 # CA GRA
46 46 1 0.000000 26.789000 0.709000 0.000000 # CA GRA
47 47 1 0.000000 26.789000 2.127000 0.000000 # CA GRA
48 48 1 0.000000 28.017000 2.836000 0.000000 # CA GRA
49 49 1 0.000000 30.473000 0.000000 0.000000 # CA GRA
50 50 1 0.000000 29.245001 0.709000 0.000000 # CA GRA
51 51 1 0.000000 29.245001 2.127000 0.000000 # CA GRA
52 52 1 0.000000 30.473000 2.836000 0.000000 # CA GRA
53 53 1 0.000000 32.929001 0.000000 0.000000 # CA GRA
54 54 1 0.000000 31.701000 0.709000 0.000000 # CA GRA
55 55 1 0.000000 31.701000 2.127000 0.000000 # CA GRA
56 56 1 0.000000 32.929001 2.836000 0.000000 # CA GRA
57 57 1 0.000000 1.000000 4.254000 0.000000 # CA GRA
58 58 1 0.000000 -0.228000 4.963000 0.000000 # CA GRA
59 59 1 0.000000 -0.228000 6.381000 0.000000 # CA GRA
60 60 1 0.000000 1.000000 7.090000 0.000000 # CA GRA
61 61 1 0.000000 3.456000 4.254000 0.000000 # CA GRA
62 62 1 0.000000 2.228000 4.963000 0.000000 # CA GRA
63 63 1 0.000000 2.228000 6.381000 0.000000 # CA GRA
64 64 1 0.000000 3.456000 7.090000 0.000000 # CA GRA
65 65 1 0.000000 5.912000 4.254000 0.000000 # CA GRA
66 66 1 0.000000 4.684000 4.963000 0.000000 # CA GRA
67 67 1 0.000000 4.684000 6.381000 0.000000 # CA GRA
68 68 1 0.000000 5.912000 7.090000 0.000000 # CA GRA
69 69 1 0.000000 8.368000 4.254000 0.000000 # CA GRA
70 70 1 0.000000 7.140000 4.963000 0.000000 # CA GRA
71 71 1 0.000000 7.140000 6.381000 0.000000 # CA GRA
72 72 1 0.000000 8.368000 7.090000 0.000000 # CA GRA
73 73 1 0.000000 10.824000 4.254000 0.000000 # CA GRA
74 74 1 0.000000 9.596000 4.963000 0.000000 # CA GRA
75 75 1 0.000000 9.596000 6.381000 0.000000 # CA GRA
76 76 1 0.000000 10.824000 7.090000 0.000000 # CA GRA
77 77 1 0.000000 13.280000 4.254000 0.000000 # CA GRA
78 78 1 0.000000 12.052000 4.963000 0.000000 # CA GRA
79 79 1 0.000000 12.052000 6.381000 0.000000 # CA GRA
80 80 1 0.000000 13.280000 7.090000 0.000000 # CA GRA
81 81 1 0.000000 15.736000 4.254000 0.000000 # CA GRA
82 82 1 0.000000 14.508000 4.963000 0.000000 # CA GRA
83 83 1 0.000000 14.508000 6.381000 0.000000 # CA GRA
84 84 1 0.000000 15.736000 7.090000 0.000000 # CA GRA
85 85 1 0.000000 18.191999 4.254000 0.000000 # CA GRA
86 86 1 0.000000 16.964001 4.963000 0.000000 # CA GRA
87 87 1 0.000000 16.964001 6.381000 0.000000 # CA GRA
88 88 1 0.000000 18.191999 7.090000 0.000000 # CA GRA
89 89 1 0.000000 20.648001 4.254000 0.000000 # CA GRA
90 90 1 0.000000 19.420000 4.963000 0.000000 # CA GRA
91 91 1 0.000000 19.420000 6.381000 0.000000 # CA GRA
92 92 1 0.000000 20.648001 7.090000 0.000000 # CA GRA
93 93 1 0.000000 23.104000 4.254000 0.000000 # CA GRA
94 94 1 0.000000 21.875999 4.963000 0.000000 # CA GRA
95 95 1 0.000000 21.875999 6.381000 0.000000 # CA GRA
96 96 1 0.000000 23.104000 7.090000 0.000000 # CA GRA
97 97 1 0.000000 25.559999 4.254000 0.000000 # CA GRA
98 98 1 0.000000 24.332001 4.963000 0.000000 # CA GRA
99 99 1 0.000000 24.332001 6.381000 0.000000 # CA GRA
100 100 1 0.000000 25.559999 7.090000 0.000000 # CA GRA
101 101 1 0.000000 28.017000 4.254000 0.000000 # CA GRA
102 102 1 0.000000 26.789000 4.963000 0.000000 # CA GRA
103 103 1 0.000000 26.789000 6.381000 0.000000 # CA GRA
104 104 1 0.000000 28.017000 7.090000 0.000000 # CA GRA
105 105 1 0.000000 30.473000 4.254000 0.000000 # CA GRA
106 106 1 0.000000 29.245001 4.963000 0.000000 # CA GRA
107 107 1 0.000000 29.245001 6.381000 0.000000 # CA GRA
108 108 1 0.000000 30.473000 7.090000 0.000000 # CA GRA
109 109 1 0.000000 32.929001 4.254000 0.000000 # CA GRA
110 110 1 0.000000 31.701000 4.963000 0.000000 # CA GRA
111 111 1 0.000000 31.701000 6.381000 0.000000 # CA GRA
112 112 1 0.000000 32.929001 7.090000 0.000000 # CA GRA
113 113 1 0.000000 1.000000 8.508000 0.000000 # CA GRA
114 114 1 0.000000 -0.228000 9.217000 0.000000 # CA GRA
115 115 1 0.000000 -0.228000 10.635000 0.000000 # CA GRA
116 116 1 0.000000 1.000000 11.344000 0.000000 # CA GRA
117 117 1 0.000000 3.456000 8.508000 0.000000 # CA GRA
118 118 1 0.000000 2.228000 9.217000 0.000000 # CA GRA
119 119 1 0.000000 2.228000 10.635000 0.000000 # CA GRA
120 120 1 0.000000 3.456000 11.344000 0.000000 # CA GRA
121 121 1 0.000000 5.912000 8.508000 0.000000 # CA GRA
122 122 1 0.000000 4.684000 9.217000 0.000000 # CA GRA
123 123 1 0.000000 4.684000 10.635000 0.000000 # CA GRA
124 124 1 0.000000 5.912000 11.344000 0.000000 # CA GRA
125 125 1 0.000000 8.368000 8.508000 0.000000 # CA GRA
126 126 1 0.000000 7.140000 9.217000 0.000000 # CA GRA
127 127 1 0.000000 7.140000 10.635000 0.000000 # CA GRA
128 128 1 0.000000 8.368000 11.344000 0.000000 # CA GRA
129 129 1 0.000000 10.824000 8.508000 0.000000 # CA GRA
130 130 1 0.000000 9.596000 9.217000 0.000000 # CA GRA
131 131 1 0.000000 9.596000 10.635000 0.000000 # CA GRA
132 132 1 0.000000 10.824000 11.344000 0.000000 # CA GRA
133 133 1 0.000000 13.280000 8.508000 0.000000 # CA GRA
134 134 1 0.000000 12.052000 9.217000 0.000000 # CA GRA
135 135 1 0.000000 12.052000 10.635000 0.000000 # CA GRA
136 136 1 0.000000 13.280000 11.344000 0.000000 # CA GRA
137 137 1 0.000000 15.736000 8.508000 0.000000 # CA GRA
138 138 1 0.000000 14.508000 9.217000 0.000000 # CA GRA
139 139 1 0.000000 14.508000 10.635000 0.000000 # CA GRA
140 140 1 0.000000 15.736000 11.344000 0.000000 # CA GRA
141 141 1 0.000000 18.191999 8.508000 0.000000 # CA GRA
142 142 1 0.000000 16.964001 9.217000 0.000000 # CA GRA
143 143 1 0.000000 16.964001 10.635000 0.000000 # CA GRA
144 144 1 0.000000 18.191999 11.344000 0.000000 # CA GRA
145 145 1 0.000000 20.648001 8.508000 0.000000 # CA GRA
146 146 1 0.000000 19.420000 9.217000 0.000000 # CA GRA
147 147 1 0.000000 19.420000 10.635000 0.000000 # CA GRA
148 148 1 0.000000 20.648001 11.344000 0.000000 # CA GRA
149 149 1 0.000000 23.104000 8.508000 0.000000 # CA GRA
150 150 1 0.000000 21.875999 9.217000 0.000000 # CA GRA
151 151 1 0.000000 21.875999 10.635000 0.000000 # CA GRA
152 152 1 0.000000 23.104000 11.344000 0.000000 # CA GRA
153 153 1 0.000000 25.559999 8.508000 0.000000 # CA GRA
154 154 1 0.000000 24.332001 9.217000 0.000000 # CA GRA
155 155 1 0.000000 24.332001 10.635000 0.000000 # CA GRA
156 156 1 0.000000 25.559999 11.344000 0.000000 # CA GRA
157 157 1 0.000000 28.017000 8.508000 0.000000 # CA GRA
158 158 1 0.000000 26.789000 9.217000 0.000000 # CA GRA
159 159 1 0.000000 26.789000 10.635000 0.000000 # CA GRA
160 160 1 0.000000 28.017000 11.344000 0.000000 # CA GRA
161 161 1 0.000000 30.473000 8.508000 0.000000 # CA GRA
162 162 1 0.000000 29.245001 9.217000 0.000000 # CA GRA
163 163 1 0.000000 29.245001 10.635000 0.000000 # CA GRA
164 164 1 0.000000 30.473000 11.344000 0.000000 # CA GRA
165 165 1 0.000000 32.929001 8.508000 0.000000 # CA GRA
166 166 1 0.000000 31.701000 9.217000 0.000000 # CA GRA
167 167 1 0.000000 31.701000 10.635000 0.000000 # CA GRA
168 168 1 0.000000 32.929001 11.344000 0.000000 # CA GRA
169 169 1 0.000000 1.000000 12.762000 0.000000 # CA GRA
170 170 1 0.000000 -0.228000 13.471000 0.000000 # CA GRA
171 171 1 0.000000 -0.228000 14.889000 0.000000 # CA GRA
172 172 1 0.000000 1.000000 15.598000 0.000000 # CA GRA
173 173 1 0.000000 3.456000 12.762000 0.000000 # CA GRA
174 174 1 0.000000 2.228000 13.471000 0.000000 # CA GRA
175 175 1 0.000000 2.228000 14.889000 0.000000 # CA GRA
176 176 1 0.000000 3.456000 15.598000 0.000000 # CA GRA
177 177 1 0.000000 5.912000 12.762000 0.000000 # CA GRA
178 178 1 0.000000 4.684000 13.471000 0.000000 # CA GRA
179 179 1 0.000000 4.684000 14.889000 0.000000 # CA GRA
180 180 1 0.000000 5.912000 15.598000 0.000000 # CA GRA
181 181 1 0.000000 8.368000 12.762000 0.000000 # CA GRA
182 182 1 0.000000 7.140000 13.471000 0.000000 # CA GRA
183 183 1 0.000000 7.140000 14.889000 0.000000 # CA GRA
184 184 1 0.000000 8.368000 15.598000 0.000000 # CA GRA
185 185 1 0.000000 10.824000 12.762000 0.000000 # CA GRA
186 186 1 0.000000 9.596000 13.471000 0.000000 # CA GRA
187 187 1 0.000000 9.596000 14.889000 0.000000 # CA GRA
188 188 1 0.000000 10.824000 15.598000 0.000000 # CA GRA
189 189 1 0.000000 13.280000 12.762000 0.000000 # CA GRA
190 190 1 0.000000 12.052000 13.471000 0.000000 # CA GRA
191 191 1 0.000000 12.052000 14.889000 0.000000 # CA GRA
192 197 1 0.000000 18.191999 12.762000 0.000000 # CA GRA
193 201 1 0.000000 20.648001 12.762000 0.000000 # CA GRA
194 202 1 0.000000 19.420000 13.471000 0.000000 # CA GRA
195 203 1 0.000000 19.420000 14.889000 0.000000 # CA GRA
196 204 1 0.000000 20.648001 15.598000 0.000000 # CA GRA
197 205 1 0.000000 23.104000 12.762000 0.000000 # CA GRA
198 206 1 0.000000 21.875999 13.471000 0.000000 # CA GRA
199 207 1 0.000000 21.875999 14.889000 0.000000 # CA GRA
200 208 1 0.000000 23.104000 15.598000 0.000000 # CA GRA
201 209 1 0.000000 25.559999 12.762000 0.000000 # CA GRA
202 210 1 0.000000 24.332001 13.471000 0.000000 # CA GRA
203 211 1 0.000000 24.332001 14.889000 0.000000 # CA GRA
204 212 1 0.000000 25.559999 15.598000 0.000000 # CA GRA
205 213 1 0.000000 28.017000 12.762000 0.000000 # CA GRA
206 214 1 0.000000 26.789000 13.471000 0.000000 # CA GRA
207 215 1 0.000000 26.789000 14.889000 0.000000 # CA GRA
208 216 1 0.000000 28.017000 15.598000 0.000000 # CA GRA
209 217 1 0.000000 30.473000 12.762000 0.000000 # CA GRA
210 218 1 0.000000 29.245001 13.471000 0.000000 # CA GRA
211 219 1 0.000000 29.245001 14.889000 0.000000 # CA GRA
212 220 1 0.000000 30.473000 15.598000 0.000000 # CA GRA
213 221 1 0.000000 32.929001 12.762000 0.000000 # CA GRA
214 222 1 0.000000 31.701000 13.471000 0.000000 # CA GRA
215 223 1 0.000000 31.701000 14.889000 0.000000 # CA GRA
216 224 1 0.000000 32.929001 15.598000 0.000000 # CA GRA
217 225 1 0.000000 1.000000 17.016001 0.000000 # CA GRA
218 226 1 0.000000 -0.228000 17.725000 0.000000 # CA GRA
219 227 1 0.000000 -0.228000 19.143000 0.000000 # CA GRA
220 228 1 0.000000 1.000000 19.851999 0.000000 # CA GRA
221 229 1 0.000000 3.456000 17.016001 0.000000 # CA GRA
222 230 1 0.000000 2.228000 17.725000 0.000000 # CA GRA
223 231 1 0.000000 2.228000 19.143000 0.000000 # CA GRA
224 232 1 0.000000 3.456000 19.851999 0.000000 # CA GRA
225 233 1 0.000000 5.912000 17.016001 0.000000 # CA GRA
226 234 1 0.000000 4.684000 17.725000 0.000000 # CA GRA
227 235 1 0.000000 4.684000 19.143000 0.000000 # CA GRA
228 236 1 0.000000 5.912000 19.851999 0.000000 # CA GRA
229 237 1 0.000000 8.368000 17.016001 0.000000 # CA GRA
230 238 1 0.000000 7.140000 17.725000 0.000000 # CA GRA
231 239 1 0.000000 7.140000 19.143000 0.000000 # CA GRA
232 240 1 0.000000 8.368000 19.851999 0.000000 # CA GRA
233 241 1 0.000000 10.824000 17.016001 0.000000 # CA GRA
234 242 1 0.000000 9.596000 17.725000 0.000000 # CA GRA
235 243 1 0.000000 9.596000 19.143000 0.000000 # CA GRA
236 244 1 0.000000 10.824000 19.851999 0.000000 # CA GRA
237 246 1 0.000000 12.052000 17.725000 0.000000 # CA GRA
238 247 1 0.000000 12.052000 19.143000 0.000000 # CA GRA
239 248 1 0.000000 13.280000 19.851999 0.000000 # CA GRA
240 256 1 0.000000 18.191999 19.851999 0.000000 # CA GRA
241 257 1 0.000000 20.648001 17.016001 0.000000 # CA GRA
242 258 1 0.000000 19.420000 17.725000 0.000000 # CA GRA
243 259 1 0.000000 19.420000 19.143000 0.000000 # CA GRA
244 260 1 0.000000 20.648001 19.851999 0.000000 # CA GRA
245 261 1 0.000000 23.104000 17.016001 0.000000 # CA GRA
246 262 1 0.000000 21.875999 17.725000 0.000000 # CA GRA
247 263 1 0.000000 21.875999 19.143000 0.000000 # CA GRA
248 264 1 0.000000 23.104000 19.851999 0.000000 # CA GRA
249 265 1 0.000000 25.559999 17.016001 0.000000 # CA GRA
250 266 1 0.000000 24.332001 17.725000 0.000000 # CA GRA
251 267 1 0.000000 24.332001 19.143000 0.000000 # CA GRA
252 268 1 0.000000 25.559999 19.851999 0.000000 # CA GRA
253 269 1 0.000000 28.017000 17.016001 0.000000 # CA GRA
254 270 1 0.000000 26.789000 17.725000 0.000000 # CA GRA
255 271 1 0.000000 26.789000 19.143000 0.000000 # CA GRA
256 272 1 0.000000 28.017000 19.851999 0.000000 # CA GRA
257 273 1 0.000000 30.473000 17.016001 0.000000 # CA GRA
258 274 1 0.000000 29.245001 17.725000 0.000000 # CA GRA
259 275 1 0.000000 29.245001 19.143000 0.000000 # CA GRA
260 276 1 0.000000 30.473000 19.851999 0.000000 # CA GRA
261 277 1 0.000000 32.929001 17.016001 0.000000 # CA GRA
262 278 1 0.000000 31.701000 17.725000 0.000000 # CA GRA
263 279 1 0.000000 31.701000 19.143000 0.000000 # CA GRA
264 280 1 0.000000 32.929001 19.851999 0.000000 # CA GRA
265 281 1 0.000000 1.000000 21.270000 0.000000 # CA GRA
266 282 1 0.000000 -0.228000 21.979000 0.000000 # CA GRA
267 283 1 0.000000 -0.228000 23.396999 0.000000 # CA GRA
268 284 1 0.000000 1.000000 24.106001 0.000000 # CA GRA
269 285 1 0.000000 3.456000 21.270000 0.000000 # CA GRA
270 286 1 0.000000 2.228000 21.979000 0.000000 # CA GRA
271 287 1 0.000000 2.228000 23.396999 0.000000 # CA GRA
272 288 1 0.000000 3.456000 24.106001 0.000000 # CA GRA
273 289 1 0.000000 5.912000 21.270000 0.000000 # CA GRA
274 290 1 0.000000 4.684000 21.979000 0.000000 # CA GRA
275 291 1 0.000000 4.684000 23.396999 0.000000 # CA GRA
276 292 1 0.000000 5.912000 24.106001 0.000000 # CA GRA
277 293 1 0.000000 8.368000 21.270000 0.000000 # CA GRA
278 294 1 0.000000 7.140000 21.979000 0.000000 # CA GRA
279 295 1 0.000000 7.140000 23.396999 0.000000 # CA GRA
280 296 1 0.000000 8.368000 24.106001 0.000000 # CA GRA
281 297 1 0.000000 10.824000 21.270000 0.000000 # CA GRA
282 298 1 0.000000 9.596000 21.979000 0.000000 # CA GRA
283 299 1 0.000000 9.596000 23.396999 0.000000 # CA GRA
284 300 1 0.000000 10.824000 24.106001 0.000000 # CA GRA
285 301 1 0.000000 13.280000 21.270000 0.000000 # CA GRA
286 302 1 0.000000 12.052000 21.979000 0.000000 # CA GRA
287 303 1 0.000000 12.052000 23.396999 0.000000 # CA GRA
288 304 1 0.000000 13.280000 24.106001 0.000000 # CA GRA
289 305 1 0.000000 15.736000 21.270000 0.000000 # CA GRA
290 306 1 0.000000 14.508000 21.979000 0.000000 # CA GRA
291 307 1 0.000000 14.508000 23.396999 0.000000 # CA GRA
292 308 1 0.000000 15.736000 24.106001 0.000000 # CA GRA
293 309 1 0.000000 18.191999 21.270000 0.000000 # CA GRA
294 310 1 0.000000 16.964001 21.979000 0.000000 # CA GRA
295 311 1 0.000000 16.964001 23.396999 0.000000 # CA GRA
296 312 1 0.000000 18.191999 24.106001 0.000000 # CA GRA
297 313 1 0.000000 20.648001 21.270000 0.000000 # CA GRA
298 314 1 0.000000 19.420000 21.979000 0.000000 # CA GRA
299 315 1 0.000000 19.420000 23.396999 0.000000 # CA GRA
300 316 1 0.000000 20.648001 24.106001 0.000000 # CA GRA
301 317 1 0.000000 23.104000 21.270000 0.000000 # CA GRA
302 318 1 0.000000 21.875999 21.979000 0.000000 # CA GRA
303 319 1 0.000000 21.875999 23.396999 0.000000 # CA GRA
304 320 1 0.000000 23.104000 24.106001 0.000000 # CA GRA
305 321 1 0.000000 25.559999 21.270000 0.000000 # CA GRA
306 322 1 0.000000 24.332001 21.979000 0.000000 # CA GRA
307 323 1 0.000000 24.332001 23.396999 0.000000 # CA GRA
308 324 1 0.000000 25.559999 24.106001 0.000000 # CA GRA
309 325 1 0.000000 28.017000 21.270000 0.000000 # CA GRA
310 326 1 0.000000 26.789000 21.979000 0.000000 # CA GRA
311 327 1 0.000000 26.789000 23.396999 0.000000 # CA GRA
312 328 1 0.000000 28.017000 24.106001 0.000000 # CA GRA
313 329 1 0.000000 30.473000 21.270000 0.000000 # CA GRA
314 330 1 0.000000 29.245001 21.979000 0.000000 # CA GRA
315 331 1 0.000000 29.245001 23.396999 0.000000 # CA GRA
316 332 1 0.000000 30.473000 24.106001 0.000000 # CA GRA
317 333 1 0.000000 32.929001 21.270000 0.000000 # CA GRA
318 334 1 0.000000 31.701000 21.979000 0.000000 # CA GRA
319 335 1 0.000000 31.701000 23.396999 0.000000 # CA GRA
320 336 1 0.000000 32.929001 24.106001 0.000000 # CA GRA
321 337 1 0.000000 1.000000 25.524000 0.000000 # CA GRA
322 338 1 0.000000 -0.228000 26.233000 0.000000 # CA GRA
323 339 1 0.000000 -0.228000 27.650999 0.000000 # CA GRA
324 340 1 0.000000 1.000000 28.360001 0.000000 # CA GRA
325 341 1 0.000000 3.456000 25.524000 0.000000 # CA GRA
326 342 1 0.000000 2.228000 26.233000 0.000000 # CA GRA
327 343 1 0.000000 2.228000 27.650999 0.000000 # CA GRA
328 344 1 0.000000 3.456000 28.360001 0.000000 # CA GRA
329 345 1 0.000000 5.912000 25.524000 0.000000 # CA GRA
330 346 1 0.000000 4.684000 26.233000 0.000000 # CA GRA
331 347 1 0.000000 4.684000 27.650999 0.000000 # CA GRA
332 348 1 0.000000 5.912000 28.360001 0.000000 # CA GRA
333 349 1 0.000000 8.368000 25.524000 0.000000 # CA GRA
334 350 1 0.000000 7.140000 26.233000 0.000000 # CA GRA
335 351 1 0.000000 7.140000 27.650999 0.000000 # CA GRA
336 352 1 0.000000 8.368000 28.360001 0.000000 # CA GRA
337 353 1 0.000000 10.824000 25.524000 0.000000 # CA GRA
338 354 1 0.000000 9.596000 26.233000 0.000000 # CA GRA
339 355 1 0.000000 9.596000 27.650999 0.000000 # CA GRA
340 356 1 0.000000 10.824000 28.360001 0.000000 # CA GRA
341 357 1 0.000000 13.280000 25.524000 0.000000 # CA GRA
342 358 1 0.000000 12.052000 26.233000 0.000000 # CA GRA
343 359 1 0.000000 12.052000 27.650999 0.000000 # CA GRA
344 360 1 0.000000 13.280000 28.360001 0.000000 # CA GRA
345 361 1 0.000000 15.736000 25.524000 0.000000 # CA GRA
346 362 1 0.000000 14.508000 26.233000 0.000000 # CA GRA
347 363 1 0.000000 14.508000 27.650999 0.000000 # CA GRA
348 364 1 0.000000 15.736000 28.360001 0.000000 # CA GRA
349 365 1 0.000000 18.191999 25.524000 0.000000 # CA GRA
350 366 1 0.000000 16.964001 26.233000 0.000000 # CA GRA
351 367 1 0.000000 16.964001 27.650999 0.000000 # CA GRA
352 368 1 0.000000 18.191999 28.360001 0.000000 # CA GRA
353 369 1 0.000000 20.648001 25.524000 0.000000 # CA GRA
354 370 1 0.000000 19.420000 26.233000 0.000000 # CA GRA
355 371 1 0.000000 19.420000 27.650999 0.000000 # CA GRA
356 372 1 0.000000 20.648001 28.360001 0.000000 # CA GRA
357 373 1 0.000000 23.104000 25.524000 0.000000 # CA GRA
358 374 1 0.000000 21.875999 26.233000 0.000000 # CA GRA
359 375 1 0.000000 21.875999 27.650999 0.000000 # CA GRA
360 376 1 0.000000 23.104000 28.360001 0.000000 # CA GRA
361 377 1 0.000000 25.559999 25.524000 0.000000 # CA GRA
362 378 1 0.000000 24.332001 26.233000 0.000000 # CA GRA
363 379 1 0.000000 24.332001 27.650999 0.000000 # CA GRA
364 380 1 0.000000 25.559999 28.360001 0.000000 # CA GRA
365 381 1 0.000000 28.017000 25.524000 0.000000 # CA GRA
366 382 1 0.000000 26.789000 26.233000 0.000000 # CA GRA
367 383 1 0.000000 26.789000 27.650999 0.000000 # CA GRA
368 384 1 0.000000 28.017000 28.360001 0.000000 # CA GRA
369 385 1 0.000000 30.473000 25.524000 0.000000 # CA GRA
370 386 1 0.000000 29.245001 26.233000 0.000000 # CA GRA
371 387 1 0.000000 29.245001 27.650999 0.000000 # CA GRA
372 388 1 0.000000 30.473000 28.360001 0.000000 # CA GRA
373 389 1 0.000000 32.929001 25.524000 0.000000 # CA GRA
374 390 1 0.000000 31.701000 26.233000 0.000000 # CA GRA
375 391 1 0.000000 31.701000 27.650999 0.000000 # CA GRA
376 392 1 0.000000 32.929001 28.360001 0.000000 # CA GRA
377 393 1 0.000000 1.000000 29.778000 0.000000 # CA GRA
378 394 1 0.000000 -0.228000 30.487000 0.000000 # CA GRA
379 395 1 0.000000 -0.228000 31.905001 0.000000 # CA GRA
380 396 1 0.000000 1.000000 32.613998 0.000000 # CA GRA
381 397 1 0.000000 3.456000 29.778000 0.000000 # CA GRA
382 398 1 0.000000 2.228000 30.487000 0.000000 # CA GRA
383 399 1 0.000000 2.228000 31.905001 0.000000 # CA GRA
384 400 1 0.000000 3.456000 32.613998 0.000000 # CA GRA
385 401 1 0.000000 5.912000 29.778000 0.000000 # CA GRA
386 402 1 0.000000 4.684000 30.487000 0.000000 # CA GRA
387 403 1 0.000000 4.684000 31.905001 0.000000 # CA GRA
388 404 1 0.000000 5.912000 32.613998 0.000000 # CA GRA
389 405 1 0.000000 8.368000 29.778000 0.000000 # CA GRA
390 406 1 0.000000 7.140000 30.487000 0.000000 # CA GRA
391 407 1 0.000000 7.140000 31.905001 0.000000 # CA GRA
392 408 1 0.000000 8.368000 32.613998 0.000000 # CA GRA
393 409 1 0.000000 10.824000 29.778000 0.000000 # CA GRA
394 410 1 0.000000 9.596000 30.487000 0.000000 # CA GRA
395 411 1 0.000000 9.596000 31.905001 0.000000 # CA GRA
396 412 1 0.000000 10.824000 32.613998 0.000000 # CA GRA
397 413 1 0.000000 13.280000 29.778000 0.000000 # CA GRA
398 414 1 0.000000 12.052000 30.487000 0.000000 # CA GRA
399 415 1 0.000000 12.052000 31.905001 0.000000 # CA GRA
400 416 1 0.000000 13.280000 32.613998 0.000000 # CA GRA
401 417 1 0.000000 15.736000 29.778000 0.000000 # CA GRA
402 418 1 0.000000 14.508000 30.487000 0.000000 # CA GRA
403 419 1 0.000000 14.508000 31.905001 0.000000 # CA GRA
404 420 1 0.000000 15.736000 32.613998 0.000000 # CA GRA
405 421 1 0.000000 18.191999 29.778000 0.000000 # CA GRA
406 422 1 0.000000 16.964001 30.487000 0.000000 # CA GRA
407 423 1 0.000000 16.964001 31.905001 0.000000 # CA GRA
408 424 1 0.000000 18.191999 32.613998 0.000000 # CA GRA
409 425 1 0.000000 20.648001 29.778000 0.000000 # CA GRA
410 426 1 0.000000 19.420000 30.487000 0.000000 # CA GRA
411 427 1 0.000000 19.420000 31.905001 0.000000 # CA GRA
412 428 1 0.000000 20.648001 32.613998 0.000000 # CA GRA
413 429 1 0.000000 23.104000 29.778000 0.000000 # CA GRA
414 430 1 0.000000 21.875999 30.487000 0.000000 # CA GRA
415 431 1 0.000000 21.875999 31.905001 0.000000 # CA GRA
416 432 1 0.000000 23.104000 32.613998 0.000000 # CA GRA
417 433 1 0.000000 25.559999 29.778000 0.000000 # CA GRA
418 434 1 0.000000 24.332001 30.487000 0.000000 # CA GRA
419 435 1 0.000000 24.332001 31.905001 0.000000 # CA GRA
420 436 1 0.000000 25.559999 32.613998 0.000000 # CA GRA
421 437 1 0.000000 28.017000 29.778000 0.000000 # CA GRA
422 438 1 0.000000 26.789000 30.487000 0.000000 # CA GRA
423 439 1 0.000000 26.789000 31.905001 0.000000 # CA GRA
424 440 1 0.000000 28.017000 32.613998 0.000000 # CA GRA
425 441 1 0.000000 30.473000 29.778000 0.000000 # CA GRA
426 442 1 0.000000 29.245001 30.487000 0.000000 # CA GRA
427 443 1 0.000000 29.245001 31.905001 0.000000 # CA GRA
428 444 1 0.000000 30.473000 32.613998 0.000000 # CA GRA
429 445 1 0.000000 32.929001 29.778000 0.000000 # CA GRA
430 446 1 0.000000 31.701000 30.487000 0.000000 # CA GRA
431 447 1 0.000000 31.701000 31.905001 0.000000 # CA GRA
432 448 1 0.000000 32.929001 32.613998 0.000000 # CA GRA
433 5 7 -0.834000 3.668000 10.082000 15.904000 # OT TIP3
434 5 5 0.417000 3.224000 10.451000 15.101000 # HT TIP3
435 5 5 0.417000 3.092000 10.379000 16.627001 # HT TIP3
436 7 7 -0.834000 6.033000 4.876000 20.891001 # OT TIP3
437 7 5 0.417000 6.078000 5.224000 21.798000 # HT TIP3
438 7 5 0.417000 6.592000 4.088000 20.961000 # HT TIP3
439 8 7 -0.834000 4.569000 3.960000 29.886999 # OT TIP3
440 8 5 0.417000 3.959000 3.160000 29.980000 # HT TIP3
441 8 5 0.417000 3.995000 4.655000 29.422001 # HT TIP3
442 21 7 -0.834000 5.186000 16.695999 12.072000 # OT TIP3
443 21 5 0.417000 6.083000 16.979000 11.816000 # HT TIP3
444 21 5 0.417000 5.337000 15.832000 12.490000 # HT TIP3
445 26 7 -0.834000 14.437000 5.794000 30.556000 # OT TIP3
446 26 5 0.417000 13.524000 5.319000 30.532000 # HT TIP3
447 26 5 0.417000 14.984000 5.113000 30.973000 # HT TIP3
448 29 7 -0.834000 8.324000 13.811000 21.332001 # OT TIP3
449 29 5 0.417000 8.633000 13.348000 22.112000 # HT TIP3
450 29 5 0.417000 8.506000 13.116000 20.645000 # HT TIP3
451 44 7 -0.834000 3.786000 16.318001 1.310000 # OT TIP3
452 44 5 0.417000 3.781000 15.388000 1.196000 # HT TIP3
453 44 5 0.417000 4.528000 16.580000 0.781000 # HT TIP3
454 46 7 -0.834000 6.205000 6.991000 18.441999 # OT TIP3
455 46 5 0.417000 6.782000 7.347000 19.152000 # HT TIP3
456 46 5 0.417000 5.309000 7.062000 18.799999 # HT TIP3
457 47 7 -0.834000 16.125999 14.701000 4.577000 # OT TIP3
458 47 5 0.417000 16.070000 14.272000 3.726000 # HT TIP3
459 47 5 0.417000 16.805000 15.454000 4.445000 # HT TIP3
460 48 7 -0.834000 2.750000 8.844000 9.629000 # OT TIP3
461 48 5 0.417000 2.110000 8.290000 9.998000 # HT TIP3
462 48 5 0.417000 2.164000 9.245000 8.962000 # HT TIP3
463 52 7 -0.834000 3.935000 16.195000 22.108999 # OT TIP3
464 52 5 0.417000 4.870000 16.034000 21.985001 # HT TIP3
465 52 5 0.417000 3.655000 15.367000 22.580999 # HT TIP3
466 53 7 -0.834000 2.991000 11.162000 27.860001 # OT TIP3
467 53 5 0.417000 3.594000 10.968000 27.129000 # HT TIP3
468 53 5 0.417000 2.414000 11.775000 27.430000 # HT TIP3
469 55 7 -0.834000 4.240000 7.037000 27.080999 # OT TIP3
470 55 5 0.417000 4.656000 7.831000 26.658001 # HT TIP3
471 55 5 0.417000 3.786000 7.428000 27.812000 # HT TIP3
472 64 7 -0.834000 10.674000 8.909000 4.986000 # OT TIP3
473 64 5 0.417000 10.998000 8.871000 5.932000 # HT TIP3
474 64 5 0.417000 9.748000 9.270000 5.075000 # HT TIP3
475 67 7 -0.834000 0.002000 5.667000 14.591000 # OT TIP3
476 67 5 0.417000 0.483000 5.990000 13.830000 # HT TIP3
477 67 5 0.417000 0.608000 5.781000 15.347000 # HT TIP3
478 68 7 -0.834000 9.882000 9.156000 14.916000 # OT TIP3
479 68 5 0.417000 9.574000 9.753000 15.597000 # HT TIP3
480 68 5 0.417000 10.021000 8.264000 15.289000 # HT TIP3
481 71 7 -0.834000 7.964000 6.107000 29.452999 # OT TIP3
482 71 5 0.417000 8.242000 5.206000 29.599001 # HT TIP3
483 71 5 0.417000 8.422000 6.545000 30.237000 # HT TIP3
484 76 7 -0.834000 6.316000 5.288000 27.495001 # OT TIP3
485 76 5 0.417000 6.640000 5.631000 28.363001 # HT TIP3
486 76 5 0.417000 5.563000 5.852000 27.280001 # HT TIP3
487 86 7 -0.834000 12.889000 29.660000 9.087000 # OT TIP3
488 86 5 0.417000 12.578000 29.796000 9.975000 # HT TIP3
489 86 5 0.417000 13.764000 29.337000 9.212000 # HT TIP3
490 87 7 -0.834000 1.661000 6.681000 1.943000 # OT TIP3
491 87 5 0.417000 1.943000 5.739000 1.981000 # HT TIP3
492 87 5 0.417000 0.778000 6.599000 1.483000 # HT TIP3
493 88 7 -0.834000 4.821000 20.603001 11.239000 # OT TIP3
494 88 5 0.417000 5.466000 20.782000 11.963000 # HT TIP3
495 88 5 0.417000 5.384000 20.914000 10.456000 # HT TIP3
496 90 7 -0.834000 15.022000 20.855000 12.831000 # OT TIP3
497 90 5 0.417000 14.222000 20.809000 13.292000 # HT TIP3
498 90 5 0.417000 14.673000 21.056999 11.918000 # HT TIP3
499 94 7 -0.834000 1.339000 3.782000 22.813999 # OT TIP3
500 94 5 0.417000 0.839000 3.425000 22.087000 # HT TIP3
501 94 5 0.417000 1.775000 3.077000 23.138000 # HT TIP3
502 95 7 -0.834000 0.485000 15.137000 22.476000 # OT TIP3
503 95 5 0.417000 0.644000 15.425000 23.349001 # HT TIP3
504 95 5 0.417000 0.312000 15.961000 21.975000 # HT TIP3
505 108 7 -0.834000 5.608000 23.917999 12.959000 # OT TIP3
506 108 5 0.417000 4.840000 23.622000 12.545000 # HT TIP3
507 108 5 0.417000 6.037000 24.336000 12.208000 # HT TIP3
508 111 7 -0.834000 10.426000 7.604000 2.404000 # OT TIP3
509 111 5 0.417000 10.761000 8.401000 1.994000 # HT TIP3
510 111 5 0.417000 10.248000 7.889000 3.308000 # HT TIP3
511 112 7 -0.834000 8.569000 25.684000 12.211000 # OT TIP3
512 112 5 0.417000 9.123000 25.542000 13.015000 # HT TIP3
513 112 5 0.417000 8.805000 26.594999 11.927000 # HT TIP3
514 113 7 -0.834000 4.269000 22.752001 16.264999 # OT TIP3
515 113 5 0.417000 4.149000 23.680000 15.888000 # HT TIP3
516 113 5 0.417000 5.061000 22.796000 16.775999 # HT TIP3
517 115 7 -0.834000 3.599000 13.689000 23.583000 # OT TIP3
518 115 5 0.417000 3.430000 12.876000 24.062000 # HT TIP3
519 115 5 0.417000 4.561000 13.769000 23.660999 # HT TIP3
520 116 7 -0.834000 19.952000 1.961000 26.164000 # OT TIP3