
     Program PWSCF v.7.3.1 starts on  4Nov2024 at 21:59:53 

     This program is part of the open-source Quantum ESPRESSO suite
     for quantum simulation of materials; please cite
         "P. Giannozzi et al., J. Phys.:Condens. Matter 21 395502 (2009);
         "P. Giannozzi et al., J. Phys.:Condens. Matter 29 465901 (2017);
         "P. Giannozzi et al., J. Chem. Phys. 152 154105 (2020);
          URL http://www.quantum-espresso.org", 
     in publications or presentations arising from this work. More details at
     http://www.quantum-espresso.org/quote

     Parallel version (MPI), running on     1 processors

     MPI processes distributed on     1 nodes
     11833 MiB available memory on the printing compute node when the environment starts

     Waiting for input...
     Reading input from standard input

     Current dimensions of program PWSCF are:
     Max number of different atomic species (ntypx) = 10
     Max number of k-points (npk) =  40000
     Max angular momentum in pseudopotentials (lmaxx) =  4

     Subspace diagonalization in iterative solution of the eigenvalue problem:
     a serial algorithm will be used


     G-vector sticks info
     --------------------
     sticks:   dense  smooth     PW     G-vecs:    dense   smooth      PW
     Sum         139     139     55                 1067     1067     259

     Using Slab Decomposition



     bravais-lattice index     =            2
     lattice parameter (alat)  =       7.0400  a.u.
     unit-cell volume          =      87.2284 (a.u.)^3
     number of atoms/cell      =            1
     number of atomic types    =            1
     number of electrons       =        10.00
     number of Kohn-Sham states=           10
     kinetic-energy cutoff     =      20.0000  Ry
     charge density cutoff     =      80.0000  Ry
     scf convergence threshold =      1.0E-08
     mixing beta               =       0.7000
     number of iterations used =            8  plain     mixing
     Exchange-correlation=  SLA  PZ   NOGX NOGC
                           (   1   1   0   0   0   0   0)
     Non magnetic calculation with spin-orbit


     celldm(1)=   7.040000  celldm(2)=   0.000000  celldm(3)=   0.000000
     celldm(4)=   0.000000  celldm(5)=   0.000000  celldm(6)=   0.000000

     crystal axes: (cart. coord. in units of alat)
               a(1) = (  -0.500000   0.000000   0.500000 )  
               a(2) = (   0.000000   0.500000   0.500000 )  
               a(3) = (  -0.500000   0.500000   0.000000 )  

     reciprocal axes: (cart. coord. in units 2 pi/alat)
               b(1) = ( -1.000000 -1.000000  1.000000 )  
               b(2) = (  1.000000  1.000000  1.000000 )  
               b(3) = ( -1.000000  1.000000 -1.000000 )  


     PseudoPot. # 1 for Pt read from file:
     /home/dashlander/Desktop/Sem7/CPD/Assignment_3/pseudo/Pt.rel-pz-n-rrkjus.UPF
     MD5 check sum: 4baafe8ec1942611396c7a5466f52249
     Pseudo is Ultrasoft + core correction, Zval = 10.0
     Generated by new atomic code, or converted to UPF format
     Using radial grid of 1277 points,  6 beta functions with: 
                l(1) =   2
                l(2) =   2
                l(3) =   2
                l(4) =   2
                l(5) =   1
                l(6) =   1
     Q(r) pseudized with 0 coefficients 


     atomic species   valence    mass     pseudopotential
     Pt               10.00   195.08400     Pt( 1.00)

     48 Sym. Ops., with inversion, found



   Cartesian axes

     site n.     atom                  positions (alat units)
         1        Pt     tau(   1) = (   0.0000000   0.0000000   0.0000000  )

     number of k points=    35
                       cart. coord. in units 2pi/alat
        k(    1) = (   0.0000000   0.0000000   0.0000000), wk =   0.0013717
        k(    2) = (  -0.1111111   0.1111111  -0.1111111), wk =   0.0109739
        k(    3) = (  -0.2222222   0.2222222  -0.2222222), wk =   0.0109739
        k(    4) = (  -0.3333333   0.3333333  -0.3333333), wk =   0.0109739
        k(    5) = (  -0.4444444   0.4444444  -0.4444444), wk =   0.0109739
        k(    6) = (   0.0000000   0.2222222   0.0000000), wk =   0.0082305
        k(    7) = (  -0.1111111   0.3333333  -0.1111111), wk =   0.0329218
        k(    8) = (  -0.2222222   0.4444444  -0.2222222), wk =   0.0329218
        k(    9) = (  -0.3333333   0.5555556  -0.3333333), wk =   0.0329218
        k(   10) = (   0.5555556  -0.3333333   0.5555556), wk =   0.0329218
        k(   11) = (   0.4444444  -0.2222222   0.4444444), wk =   0.0329218
        k(   12) = (   0.3333333  -0.1111111   0.3333333), wk =   0.0329218
        k(   13) = (   0.2222222  -0.0000000   0.2222222), wk =   0.0164609
        k(   14) = (   0.0000000   0.4444444   0.0000000), wk =   0.0082305
        k(   15) = (  -0.1111111   0.5555556  -0.1111111), wk =   0.0329218
        k(   16) = (  -0.2222222   0.6666667  -0.2222222), wk =   0.0329218
        k(   17) = (   0.6666667  -0.2222222   0.6666667), wk =   0.0329218
        k(   18) = (   0.5555556  -0.1111111   0.5555556), wk =   0.0329218
        k(   19) = (   0.4444444   0.0000000   0.4444444), wk =   0.0164609
        k(   20) = (   0.0000000   0.6666667   0.0000000), wk =   0.0082305
        k(   21) = (  -0.1111111   0.7777778  -0.1111111), wk =   0.0329218
        k(   22) = (   0.7777778  -0.1111111   0.7777778), wk =   0.0329218
        k(   23) = (   0.6666667  -0.0000000   0.6666667), wk =   0.0164609
        k(   24) = (   0.0000000   0.8888889   0.0000000), wk =   0.0082305
        k(   25) = (   0.8888889   0.0000000   0.8888889), wk =   0.0164609
        k(   26) = (  -0.2222222   0.4444444   0.0000000), wk =   0.0329218
        k(   27) = (  -0.3333333   0.5555556  -0.1111111), wk =   0.0658436
        k(   28) = (   0.5555556  -0.3333333   0.7777778), wk =   0.0658436
        k(   29) = (  -0.2222222   0.6666667   0.0000000), wk =   0.0329218
        k(   30) = (   0.6666667  -0.2222222   0.8888889), wk =   0.0658436
        k(   31) = (   0.5555556  -0.1111111   0.7777778), wk =   0.0658436
        k(   32) = (   0.4444444   0.0000000   0.6666667), wk =   0.0329218
        k(   33) = (   0.7777778  -0.1111111   1.0000000), wk =   0.0329218
        k(   34) = (   0.6666667  -0.0000000   0.8888889), wk =   0.0329218
        k(   35) = (   0.5555556  -0.1111111   1.0000000), wk =   0.0329218

     Dense  grid:     1067 G-vectors     FFT dimensions: (  15,  15,  15)

     Estimated max dynamical RAM per process >      10.51 MB

     Check: negative core charge=   -0.000026

     Initial potential from superposition of free atoms

     starting charge       9.9999, renormalised to      10.0000

     negative rho (up, down):  7.247E-05 0.000E+00
     Starting wfcs are   12 randomized atomic wfcs

     total cpu time spent up to now is        0.4 secs

     Self-consistent Calculation

     iteration #  1     ecut=    20.00 Ry     beta= 0.70
     Davidson diagonalization with overlap
     ethr =  1.00E-02,  avg # of iterations =  2.3

     Threshold (ethr) on eigenvalues was too large:
     Diagonalizing with lowered threshold

     Davidson diagonalization with overlap
     ethr =  1.12E-05,  avg # of iterations =  7.7

     negative rho (up, down):  1.773E-04 0.000E+00

     total cpu time spent up to now is        1.0 secs

     total energy              =     -69.41772848 Ry
     estimated scf accuracy    <       0.00436842 Ry

     iteration #  2     ecut=    20.00 Ry     beta= 0.70
     Davidson diagonalization with overlap
     ethr =  4.37E-05,  avg # of iterations =  2.1

     negative rho (up, down):  2.068E-04 0.000E+00

     total cpu time spent up to now is        1.2 secs

     total energy              =     -69.41879650 Ry
     estimated scf accuracy    <       0.00033611 Ry

     iteration #  3     ecut=    20.00 Ry     beta= 0.70
     Davidson diagonalization with overlap
     ethr =  3.36E-06,  avg # of iterations =  2.3

     negative rho (up, down):  2.261E-04 0.000E+00

     total cpu time spent up to now is        1.4 secs

     total energy              =     -69.41884969 Ry
     estimated scf accuracy    <       0.00001166 Ry

     iteration #  4     ecut=    20.00 Ry     beta= 0.70
     Davidson diagonalization with overlap
     ethr =  1.17E-07,  avg # of iterations =  5.8

     negative rho (up, down):  2.264E-04 0.000E+00

     total cpu time spent up to now is        1.6 secs

     total energy              =     -69.41886371 Ry
     estimated scf accuracy    <       0.00000136 Ry

     iteration #  5     ecut=    20.00 Ry     beta= 0.70
     Davidson diagonalization with overlap
     ethr =  1.36E-08,  avg # of iterations =  3.4

     negative rho (up, down):  2.273E-04 0.000E+00

     total cpu time spent up to now is        1.8 secs

     total energy              =     -69.41886396 Ry
     estimated scf accuracy    <       0.00000011 Ry

     iteration #  6     ecut=    20.00 Ry     beta= 0.70
     Davidson diagonalization with overlap
     ethr =  1.15E-09,  avg # of iterations =  4.1

     negative rho (up, down):  2.274E-04 0.000E+00

     total cpu time spent up to now is        2.0 secs

     End of self-consistent calculation

          k = 0.0000 0.0000 0.0000 (   137 PWs)   bands (ev):

     9.7672   9.7672  16.6992  16.6992  16.6992  16.6992  17.6633  17.6633
    20.0237  20.0237

          k =-0.1111 0.1111-0.1111 (   135 PWs)   bands (ev):

    10.3292  10.3292  16.6056  16.6056  16.8502  16.8502  17.8099  17.8099
    19.8192  19.8192

          k =-0.2222 0.2222-0.2222 (   138 PWs)   bands (ev):

    11.7128  11.7128  16.4468  16.4468  16.9748  16.9748  18.1522  18.1522
    19.7490  19.7490

          k =-0.3333 0.3333-0.3333 (   138 PWs)   bands (ev):

    12.7208  12.7208  16.7457  16.7457  17.5533  17.5533  17.8530  17.8530
    20.7315  20.7315

          k =-0.4444 0.4444-0.4444 (   135 PWs)   bands (ev):

    12.8186  12.8186  16.4922  16.4922  17.4928  17.4928  20.0043  20.0043
    21.6709  21.6709

          k = 0.0000 0.2222 0.0000 (   137 PWs)   bands (ev):

    10.5191  10.5191  16.3811  16.3811  17.0559  17.0559  17.9293  17.9293
    19.4875  19.4875

          k =-0.1111 0.3333-0.1111 (   134 PWs)   bands (ev):

    11.6729  11.6729  15.9894  15.9894  17.2444  17.2444  18.3736  18.3736
    19.2918  19.2918

          k =-0.2222 0.4444-0.2222 (   136 PWs)   bands (ev):

    12.9701  12.9701  16.2473  16.2473  16.8886  16.8886  18.1862  18.1862
    20.5246  20.5246

          k =-0.3333 0.5556-0.3333 (   132 PWs)   bands (ev):

    13.2684  13.2684  16.4385  16.4385  17.5852  17.5852  18.1716  18.1716
    21.9857  21.9857

          k = 0.5556-0.3333 0.5556 (   129 PWs)   bands (ev):

    13.2694  13.2694  16.3410  16.3410  17.5420  17.5420  19.0030  19.0030
    21.8818  21.8818

          k = 0.4444-0.2222 0.4444 (   133 PWs)   bands (ev):

    13.3041  13.3041  16.5787  16.5787  17.5277  17.5277  17.8418  17.8418
    20.7364  20.7364

          k = 0.3333-0.1111 0.3333 (   136 PWs)   bands (ev):

    12.6549  12.6549  16.1477  16.1477  17.0430  17.0430  18.2754  18.2754
    19.4408  19.4408

          k = 0.2222-0.0000 0.2222 (   137 PWs)   bands (ev):

    11.1998  11.1998  16.2862  16.2862  17.0852  17.0852  18.1439  18.1439
    19.3438  19.3438

          k = 0.0000 0.4444 0.0000 (   133 PWs)   bands (ev):

    12.3849  12.3849  15.3322  15.3322  17.6061  17.6061  19.0743  19.0743
    19.1068  19.1068

          k =-0.1111 0.5556-0.1111 (   132 PWs)   bands (ev):

    13.4180  13.4180  14.9573  14.9573  17.3115  17.3115  19.3133  19.3133
    20.5522  20.5522

          k =-0.2222 0.6667-0.2222 (   134 PWs)   bands (ev):

    13.9015  13.9015  15.4191  15.4191  17.0230  17.0230  19.0177  19.0177
    22.1483  22.1483

          k = 0.6667-0.2222 0.6667 (   127 PWs)   bands (ev):

    14.1256  14.1256  15.7145  15.7145  17.3785  17.3785  18.6976  18.6976
    21.9733  21.9733

          k = 0.5556-0.1111 0.5556 (   131 PWs)   bands (ev):

    14.4729  14.4729  15.9661  15.9661  16.9017  16.9017  18.5012  18.5012
    20.7682  20.7682

          k = 0.4444 0.0000 0.4444 (   135 PWs)   bands (ev):

    14.1480  14.1480  15.8229  15.8229  16.6442  16.6442  18.5635  18.5635
    19.5023  19.5023

          k = 0.0000 0.6667 0.0000 (   129 PWs)   bands (ev):

    13.3844  13.3844  14.2366  14.2366  18.8600  18.8600  20.6306  20.6306
    20.7804  20.7804

          k =-0.1111 0.7778-0.1111 (   129 PWs)   bands (ev):

    13.4729  13.4729  14.1032  14.1032  19.0491  19.0491  20.7622  20.7622
    22.2314  22.2314

          k = 0.7778-0.1111 0.7778 (   128 PWs)   bands (ev):

    13.8071  13.8071  14.7114  14.7114  18.2761  18.2761  20.2366  20.2366
    22.2287  22.2287

          k = 0.6667-0.0000 0.6667 (   126 PWs)   bands (ev):

    14.4409  14.4409  15.5889  15.5889  17.1155  17.1155  19.4928  19.4928
    21.3327  21.3327

          k = 0.0000 0.8889 0.0000 (   121 PWs)   bands (ev):

    12.9860  12.9860  13.5910  13.5910  21.7215  21.7215  21.8230  21.8230
    22.6383  22.6383

          k = 0.8889 0.0000 0.8889 (   124 PWs)   bands (ev):

    13.1665  13.1665  13.7813  13.7813  20.4406  20.4406  21.5042  21.5042
    22.7020  22.7020

          k =-0.2222 0.4444 0.0000 (   135 PWs)   bands (ev):

    12.9250  12.9250  15.5402  15.5402  17.0710  17.0710  18.9496  18.9496
    19.2771  19.2771

          k =-0.3333 0.5556-0.1111 (   134 PWs)   bands (ev):

    13.9901  13.9901  15.8885  15.8885  16.4511  16.4511  18.7311  18.7311
    20.5518  20.5518

          k = 0.5556-0.3333 0.7778 (   131 PWs)   bands (ev):

    14.0573  14.0573  15.8821  15.8821  17.3214  17.3214  18.4535  18.4535
    21.7128  21.7128

          k =-0.2222 0.6667 0.0000 (   132 PWs)   bands (ev):

    13.9986  13.9986  14.6462  14.6462  17.2859  17.2859  20.4188  20.4188
    20.7604  20.7604

          k = 0.6667-0.2222 0.8889 (   129 PWs)   bands (ev):

    14.3180  14.3180  15.0777  15.0777  17.0054  17.0054  19.8920  19.8920
    21.9083  21.9083

          k = 0.5556-0.1111 0.7778 (   131 PWs)   bands (ev):

    14.7715  14.7715  15.4001  15.4001  16.7627  16.7627  19.3304  19.3304
    21.7803  21.7803

          k = 0.4444 0.0000 0.6667 (   130 PWs)   bands (ev):

    15.2868  15.2868  15.5775  15.5775  15.8077  15.8077  19.3565  19.3565
    20.8249  20.8249

          k = 0.7778-0.1111 1.0000 (   127 PWs)   bands (ev):

    13.5541  13.5541  14.0988  14.0988  19.0256  19.0256  21.1317  21.1317
    22.4860  22.4860

          k = 0.6667-0.0000 0.8889 (   129 PWs)   bands (ev):

    14.0567  14.0567  14.8062  14.8062  17.8641  17.8641  20.1709  20.1709
    22.4590  22.4590

          k = 0.5556-0.1111 1.0000 (   129 PWs)   bands (ev):

    14.6320  14.6320  15.5655  15.5655  16.4366  16.4366  19.6472  19.6472
    22.4327  22.4327

     highest occupied level (ev):    22.7020

!    total energy              =     -69.41886402 Ry
     estimated scf accuracy    <          1.7E-09 Ry

     The total energy is the sum of the following terms:
     one-electron contribution =      21.50933206 Ry
     hartree contribution      =       2.96992063 Ry
     xc contribution           =     -28.77223495 Ry
     ewald contribution        =     -65.12588176 Ry

     convergence has been achieved in   6 iterations

     negative rho (up, down):  2.274E-04 0.000E+00

     Forces acting on atoms (cartesian axes, Ry/au):

     atom    1 type  1   force =     0.00000000    0.00000000    0.00000000

     Total force =     0.000000     Total SCF correction =     0.000000


     Computing stress (Cartesian axis) and pressure


     negative rho (up, down):  2.274E-04 0.000E+00
          total   stress  (Ry/bohr**3)                   (kbar)     P=      789.16
   0.00536458  -0.00000000  -0.00000000          789.16       -0.00       -0.00
  -0.00000000   0.00536458   0.00000000           -0.00      789.16        0.00
  -0.00000000   0.00000000   0.00536458           -0.00        0.00      789.16


     Writing all to output data dir ./platinum.save/ :
     XML data file, charge density, pseudopotentials, collected wavefunctions

     init_run     :      0.25s CPU      0.29s WALL (       1 calls)
     electrons    :      1.43s CPU      1.62s WALL (       1 calls)
     forces       :      0.03s CPU      0.03s WALL (       1 calls)
     stress       :      0.14s CPU      0.14s WALL (       1 calls)

     Called by init_run:
     wfcinit      :      0.06s CPU      0.07s WALL (       1 calls)
     potinit      :      0.01s CPU      0.01s WALL (       1 calls)
     hinit0       :      0.18s CPU      0.19s WALL (       1 calls)

     Called by electrons:
     c_bands      :      1.14s CPU      1.30s WALL (       7 calls)
     sum_band     :      0.23s CPU      0.25s WALL (       7 calls)
     v_of_rho     :      0.00s CPU      0.00s WALL (       7 calls)
     newd         :      0.07s CPU      0.08s WALL (       7 calls)
     mix_rho      :      0.00s CPU      0.00s WALL (       7 calls)

     Called by c_bands:
     init_us_2    :      0.02s CPU      0.02s WALL (     595 calls)
     cegterg      :      1.07s CPU      1.23s WALL (     245 calls)

     Called by *egterg:
     cdiaghg      :      0.08s CPU      0.09s WALL (    1179 calls)
     h_psi        :      0.66s CPU      0.76s WALL (    1249 calls)
     s_psi        :      0.09s CPU      0.11s WALL (    1249 calls)
     g_psi        :      0.01s CPU      0.01s WALL (     969 calls)

     Called by h_psi:
     h_psi:calbec :      0.07s CPU      0.09s WALL (    1249 calls)
     vloc_psi     :      0.47s CPU      0.55s WALL (    1249 calls)
     add_vuspsi   :      0.09s CPU      0.11s WALL (    1249 calls)

     General routines
     calbec       :      0.10s CPU      0.12s WALL (    1669 calls)
     fft          :      0.02s CPU      0.03s WALL (      79 calls)
     ffts         :      0.00s CPU      0.00s WALL (      28 calls)
     fftw         :      0.35s CPU      0.41s WALL (   41524 calls)

     Parallel routines

     PWSCF        :      1.98s CPU      2.22s WALL


   This run was terminated on:  21:59:55   4Nov2024            

=------------------------------------------------------------------------------=
   JOB DONE.
=------------------------------------------------------------------------------=
