
     Program PWSCF v.7.3.1 starts on  4Nov2024 at 22: 1:59 

     This program is part of the open-source Quantum ESPRESSO suite
     for quantum simulation of materials; please cite
         "P. Giannozzi et al., J. Phys.:Condens. Matter 21 395502 (2009);
         "P. Giannozzi et al., J. Phys.:Condens. Matter 29 465901 (2017);
         "P. Giannozzi et al., J. Chem. Phys. 152 154105 (2020);
          URL http://www.quantum-espresso.org", 
     in publications or presentations arising from this work. More details at
     http://www.quantum-espresso.org/quote

     Parallel version (MPI), running on     1 processors

     MPI processes distributed on     1 nodes
     11847 MiB available memory on the printing compute node when the environment starts

     Waiting for input...
     Reading input from standard input

     Current dimensions of program PWSCF are:
     Max number of different atomic species (ntypx) = 10
     Max number of k-points (npk) =  40000
     Max angular momentum in pseudopotentials (lmaxx) =  4

     Subspace diagonalization in iterative solution of the eigenvalue problem:
     a serial algorithm will be used


     G-vector sticks info
     --------------------
     sticks:   dense  smooth     PW     G-vecs:    dense   smooth      PW
     Sum         163     163     61                 1363     1363     331

     Using Slab Decomposition



     bravais-lattice index     =            2
     lattice parameter (alat)  =       7.6400  a.u.
     unit-cell volume          =     111.4859 (a.u.)^3
     number of atoms/cell      =            1
     number of atomic types    =            1
     number of electrons       =        10.00
     number of Kohn-Sham states=           10
     kinetic-energy cutoff     =      20.0000  Ry
     charge density cutoff     =      80.0000  Ry
     scf convergence threshold =      1.0E-08
     mixing beta               =       0.7000
     number of iterations used =            8  plain     mixing
     Exchange-correlation=  SLA  PZ   NOGX NOGC
                           (   1   1   0   0   0   0   0)
     Non magnetic calculation with spin-orbit


     celldm(1)=   7.640000  celldm(2)=   0.000000  celldm(3)=   0.000000
     celldm(4)=   0.000000  celldm(5)=   0.000000  celldm(6)=   0.000000

     crystal axes: (cart. coord. in units of alat)
               a(1) = (  -0.500000   0.000000   0.500000 )  
               a(2) = (   0.000000   0.500000   0.500000 )  
               a(3) = (  -0.500000   0.500000   0.000000 )  

     reciprocal axes: (cart. coord. in units 2 pi/alat)
               b(1) = ( -1.000000 -1.000000  1.000000 )  
               b(2) = (  1.000000  1.000000  1.000000 )  
               b(3) = ( -1.000000  1.000000 -1.000000 )  


     PseudoPot. # 1 for Pt read from file:
     /home/dashlander/Desktop/Sem7/CPD/Assignment_3/pseudo/Pt.rel-pz-n-rrkjus.UPF
     MD5 check sum: 4baafe8ec1942611396c7a5466f52249
     Pseudo is Ultrasoft + core correction, Zval = 10.0
     Generated by new atomic code, or converted to UPF format
     Using radial grid of 1277 points,  6 beta functions with: 
                l(1) =   2
                l(2) =   2
                l(3) =   2
                l(4) =   2
                l(5) =   1
                l(6) =   1
     Q(r) pseudized with 0 coefficients 


     atomic species   valence    mass     pseudopotential
     Pt               10.00   195.08400     Pt( 1.00)

     48 Sym. Ops., with inversion, found



   Cartesian axes

     site n.     atom                  positions (alat units)
         1        Pt     tau(   1) = (   0.0000000   0.0000000   0.0000000  )

     number of k points=    35
                       cart. coord. in units 2pi/alat
        k(    1) = (   0.0000000   0.0000000   0.0000000), wk =   0.0013717
        k(    2) = (  -0.1111111   0.1111111  -0.1111111), wk =   0.0109739
        k(    3) = (  -0.2222222   0.2222222  -0.2222222), wk =   0.0109739
        k(    4) = (  -0.3333333   0.3333333  -0.3333333), wk =   0.0109739
        k(    5) = (  -0.4444444   0.4444444  -0.4444444), wk =   0.0109739
        k(    6) = (   0.0000000   0.2222222   0.0000000), wk =   0.0082305
        k(    7) = (  -0.1111111   0.3333333  -0.1111111), wk =   0.0329218
        k(    8) = (  -0.2222222   0.4444444  -0.2222222), wk =   0.0329218
        k(    9) = (  -0.3333333   0.5555556  -0.3333333), wk =   0.0329218
        k(   10) = (   0.5555556  -0.3333333   0.5555556), wk =   0.0329218
        k(   11) = (   0.4444444  -0.2222222   0.4444444), wk =   0.0329218
        k(   12) = (   0.3333333  -0.1111111   0.3333333), wk =   0.0329218
        k(   13) = (   0.2222222  -0.0000000   0.2222222), wk =   0.0164609
        k(   14) = (   0.0000000   0.4444444   0.0000000), wk =   0.0082305
        k(   15) = (  -0.1111111   0.5555556  -0.1111111), wk =   0.0329218
        k(   16) = (  -0.2222222   0.6666667  -0.2222222), wk =   0.0329218
        k(   17) = (   0.6666667  -0.2222222   0.6666667), wk =   0.0329218
        k(   18) = (   0.5555556  -0.1111111   0.5555556), wk =   0.0329218
        k(   19) = (   0.4444444   0.0000000   0.4444444), wk =   0.0164609
        k(   20) = (   0.0000000   0.6666667   0.0000000), wk =   0.0082305
        k(   21) = (  -0.1111111   0.7777778  -0.1111111), wk =   0.0329218
        k(   22) = (   0.7777778  -0.1111111   0.7777778), wk =   0.0329218
        k(   23) = (   0.6666667  -0.0000000   0.6666667), wk =   0.0164609
        k(   24) = (   0.0000000   0.8888889   0.0000000), wk =   0.0082305
        k(   25) = (   0.8888889   0.0000000   0.8888889), wk =   0.0164609
        k(   26) = (  -0.2222222   0.4444444   0.0000000), wk =   0.0329218
        k(   27) = (  -0.3333333   0.5555556  -0.1111111), wk =   0.0658436
        k(   28) = (   0.5555556  -0.3333333   0.7777778), wk =   0.0658436
        k(   29) = (  -0.2222222   0.6666667   0.0000000), wk =   0.0329218
        k(   30) = (   0.6666667  -0.2222222   0.8888889), wk =   0.0658436
        k(   31) = (   0.5555556  -0.1111111   0.7777778), wk =   0.0658436
        k(   32) = (   0.4444444   0.0000000   0.6666667), wk =   0.0329218
        k(   33) = (   0.7777778  -0.1111111   1.0000000), wk =   0.0329218
        k(   34) = (   0.6666667  -0.0000000   0.8888889), wk =   0.0329218
        k(   35) = (   0.5555556  -0.1111111   1.0000000), wk =   0.0329218

     Dense  grid:     1363 G-vectors     FFT dimensions: (  15,  15,  15)

     Estimated max dynamical RAM per process >      13.05 MB

     Check: negative core charge=   -0.000057

     Initial potential from superposition of free atoms

     starting charge       9.9999, renormalised to      10.0000

     negative rho (up, down):  1.690E-04 0.000E+00
     Starting wfcs are   12 randomized atomic wfcs

     total cpu time spent up to now is        0.4 secs

     Self-consistent Calculation

     iteration #  1     ecut=    20.00 Ry     beta= 0.70
     Davidson diagonalization with overlap
     ethr =  1.00E-02,  avg # of iterations =  2.0

     Threshold (ethr) on eigenvalues was too large:
     Diagonalizing with lowered threshold

     Davidson diagonalization with overlap
     ethr =  3.19E-05,  avg # of iterations =  6.8

     negative rho (up, down):  2.511E-04 0.000E+00

     total cpu time spent up to now is        1.0 secs

     total energy              =     -69.45326941 Ry
     estimated scf accuracy    <       0.00272050 Ry

     iteration #  2     ecut=    20.00 Ry     beta= 0.70
     Davidson diagonalization with overlap
     ethr =  2.72E-05,  avg # of iterations =  2.3

     negative rho (up, down):  2.739E-04 0.000E+00

     total cpu time spent up to now is        1.2 secs

     total energy              =     -69.45392581 Ry
     estimated scf accuracy    <       0.00032202 Ry

     iteration #  3     ecut=    20.00 Ry     beta= 0.70
     Davidson diagonalization with overlap
     ethr =  3.22E-06,  avg # of iterations =  2.5

     negative rho (up, down):  2.907E-04 0.000E+00

     total cpu time spent up to now is        1.4 secs

     total energy              =     -69.45398711 Ry
     estimated scf accuracy    <       0.00001090 Ry

     iteration #  4     ecut=    20.00 Ry     beta= 0.70
     Davidson diagonalization with overlap
     ethr =  1.09E-07,  avg # of iterations =  6.6

     negative rho (up, down):  2.907E-04 0.000E+00

     total cpu time spent up to now is        1.7 secs

     total energy              =     -69.45400050 Ry
     estimated scf accuracy    <       0.00000256 Ry

     iteration #  5     ecut=    20.00 Ry     beta= 0.70
     Davidson diagonalization with overlap
     ethr =  2.56E-08,  avg # of iterations =  3.2

     negative rho (up, down):  2.910E-04 0.000E+00

     total cpu time spent up to now is        2.0 secs

     total energy              =     -69.45400111 Ry
     estimated scf accuracy    <       0.00000008 Ry

     iteration #  6     ecut=    20.00 Ry     beta= 0.70
     Davidson diagonalization with overlap
     ethr =  7.65E-10,  avg # of iterations =  6.8

     negative rho (up, down):  2.911E-04 0.000E+00

     total cpu time spent up to now is        2.3 secs

     total energy              =     -69.45400125 Ry
     estimated scf accuracy    <       0.00000003 Ry

     iteration #  7     ecut=    20.00 Ry     beta= 0.70
     Davidson diagonalization with overlap
     ethr =  2.67E-10,  avg # of iterations =  4.1

     negative rho (up, down):  2.910E-04 0.000E+00

     total cpu time spent up to now is        2.6 secs

     total energy              =     -69.45400124 Ry
     estimated scf accuracy    <       0.00000009 Ry

     iteration #  8     ecut=    20.00 Ry     beta= 0.70
     Davidson diagonalization with overlap
     ethr =  2.67E-10,  avg # of iterations =  2.9

     negative rho (up, down):  2.910E-04 0.000E+00

     total cpu time spent up to now is        2.8 secs

     End of self-consistent calculation

          k = 0.0000 0.0000 0.0000 (   169 PWs)   bands (ev):

     6.0685   6.0685  11.7074  11.7074  11.7074  11.7074  12.7187  12.7187
    14.2274  14.2274

          k =-0.1111 0.1111-0.1111 (   169 PWs)   bands (ev):

     6.5129   6.5129  11.6746  11.6746  11.7927  11.7927  12.8127  12.8127
    14.0823  14.0823

          k =-0.2222 0.2222-0.2222 (   168 PWs)   bands (ev):

     7.6630   7.6630  11.6155  11.6155  11.8606  11.8606  13.0601  13.0601
    13.9814  13.9814

          k =-0.3333 0.3333-0.3333 (   165 PWs)   bands (ev):

     8.6919   8.6919  11.7268  11.7268  12.4000  12.4000  12.8640  12.8640
    14.6169  14.6169

          k =-0.4444 0.4444-0.4444 (   168 PWs)   bands (ev):

     8.9270   8.9270  11.5723  11.5723  12.5940  12.5940  14.4705  14.4705
    15.2282  15.2282

          k = 0.0000 0.2222 0.0000 (   169 PWs)   bands (ev):

     6.6631   6.6631  11.5378  11.5378  11.9273  11.9273  12.8727  12.8727
    13.9185  13.9185

          k =-0.1111 0.3333-0.1111 (   166 PWs)   bands (ev):

     7.6036   7.6036  11.3159  11.3159  12.0480  12.0480  13.1791  13.1791
    13.7608  13.7608

          k =-0.2222 0.4444-0.2222 (   162 PWs)   bands (ev):

     8.7996   8.7996  11.4686  11.4686  11.8845  11.8845  13.0645  13.0645
    14.5037  14.5037

          k =-0.3333 0.5556-0.3333 (   169 PWs)   bands (ev):

     9.2410   9.2410  11.5779  11.5779  12.5417  12.5417  13.0350  13.0350
    15.4437  15.4437

          k = 0.5556-0.3333 0.5556 (   166 PWs)   bands (ev):

     9.2783   9.2783  11.5138  11.5138  12.5871  12.5871  13.6327  13.6327
    15.4031  15.4031

          k = 0.4444-0.2222 0.4444 (   165 PWs)   bands (ev):

     9.2103   9.2103  11.6412  11.6412  12.4485  12.4485  12.8289  12.8289
    14.6782  14.6782

          k = 0.3333-0.1111 0.3333 (   161 PWs)   bands (ev):

     8.4574   8.4574  11.4155  11.4155  11.9447  11.9447  13.1351  13.1351
    13.8378  13.8378

          k = 0.2222-0.0000 0.2222 (   164 PWs)   bands (ev):

     7.2130   7.2130  11.4992  11.4992  11.9387  11.9387  13.0290  13.0290
    13.7950  13.7950

          k = 0.0000 0.4444 0.0000 (   165 PWs)   bands (ev):

     8.2142   8.2142  10.8966  10.8966  12.2910  12.2910  13.5991  13.5991
    13.6783  13.6783

          k =-0.1111 0.5556-0.1111 (   167 PWs)   bands (ev):

     9.1867   9.1867  10.6414  10.6414  12.1828  12.1828  13.7580  13.7580
    14.5191  14.5191

          k =-0.2222 0.6667-0.2222 (   167 PWs)   bands (ev):

     9.7686   9.7686  10.9592  10.9592  12.0217  12.0217  13.5661  13.5661
    15.5476  15.5476

          k = 0.6667-0.2222 0.6667 (   174 PWs)   bands (ev):

     9.9607   9.9607  11.1766  11.1766  12.3320  12.3320  13.3713  13.3713
    15.4653  15.4653

          k = 0.5556-0.1111 0.5556 (   168 PWs)   bands (ev):

    10.1466  10.1466  11.3129  11.3129  12.0462  12.0462  13.1931  13.1931
    14.7182  14.7182

          k = 0.4444 0.0000 0.4444 (   166 PWs)   bands (ev):

     9.7024   9.7024  11.2031  11.2031  11.7996  11.7996  13.2320  13.2320
    13.9207  13.9207

          k = 0.0000 0.6667 0.0000 (   170 PWs)   bands (ev):

     9.3620   9.3620  10.1576  10.1576  13.2523  13.2523  14.6186  14.6186
    14.6332  14.6332

          k =-0.1111 0.7778-0.1111 (   168 PWs)   bands (ev):

     9.5554   9.5554  10.0562  10.0562  13.4770  13.4770  14.6746  14.6746
    15.6398  15.6398

          k = 0.7778-0.1111 0.7778 (   175 PWs)   bands (ev):

     9.8402   9.8402  10.4687  10.4687  12.9754  12.9754  14.3305  14.3305
    15.6602  15.6602

          k = 0.6667-0.0000 0.6667 (   172 PWs)   bands (ev):

    10.2653  10.2653  11.0506  11.0506  12.1987  12.1987  13.8248  13.8248
    15.1002  15.1002

          k = 0.0000 0.8889 0.0000 (   170 PWs)   bands (ev):

     9.2483   9.2483   9.7058   9.7058  15.1886  15.1886  15.3016  15.3016
    16.3410  16.3410

          k = 0.8889 0.0000 0.8889 (   178 PWs)   bands (ev):

     9.3966   9.3966   9.8304   9.8304  14.4945  14.4945  15.0943  15.0943
    16.0403  16.0403

          k =-0.2222 0.4444 0.0000 (   166 PWs)   bands (ev):

     8.6549   8.6549  11.0313  11.0313  12.0044  12.0044  13.5466  13.5466
    13.7186  13.7186

          k =-0.3333 0.5556-0.1111 (   166 PWs)   bands (ev):

     9.6852   9.6852  11.2329  11.2329  11.6767  11.6767  13.3695  13.3695
    14.5634  14.5634

          k = 0.5556-0.3333 0.7778 (   170 PWs)   bands (ev):

     9.8649   9.8649  11.2863  11.2863  12.2908  12.2908  13.2258  13.2258
    15.3013  15.3013

          k =-0.2222 0.6667 0.0000 (   172 PWs)   bands (ev):

     9.8165   9.8165  10.4287  10.4287  12.2105  12.2105  14.4548  14.4548
    14.7005  14.7005

          k = 0.6667-0.2222 0.8889 (   168 PWs)   bands (ev):

    10.1614  10.1614  10.7266  10.7266  12.0556  12.0556  14.1379  14.1379
    15.4368  15.4368

          k = 0.5556-0.1111 0.7778 (   174 PWs)   bands (ev):

    10.4787  10.4787  10.9439  10.9439  11.9228  11.9228  13.7722  13.7722
    15.3569  15.3569

          k = 0.4444 0.0000 0.6667 (   169 PWs)   bands (ev):

    10.6957  10.6957  11.0350  11.0350  11.3386  11.3386  13.7700  13.7700
    14.7506  14.7506

          k = 0.7778-0.1111 1.0000 (   171 PWs)   bands (ev):

     9.6655   9.6655  10.0462  10.0462  13.5002  13.5002  14.9058  14.9058
    15.8501  15.8501

          k = 0.6667-0.0000 0.8889 (   173 PWs)   bands (ev):

    10.0380  10.0380  10.5243  10.5243  12.6958  12.6958  14.3099  14.3099
    15.8030  15.8030

          k = 0.5556-0.1111 1.0000 (   166 PWs)   bands (ev):

    10.4482  10.4482  11.0242  11.0242  11.7019  11.7019  13.9916  13.9916
    15.7690  15.7690

     highest occupied level (ev):    16.3410

!    total energy              =     -69.45400126 Ry
     estimated scf accuracy    <          2.3E-11 Ry

     The total energy is the sum of the following terms:
     one-electron contribution =      14.70372133 Ry
     hartree contribution      =       4.30821426 Ry
     xc contribution           =     -28.45465312 Ry
     ewald contribution        =     -60.01128372 Ry

     convergence has been achieved in   8 iterations

     negative rho (up, down):  2.910E-04 0.000E+00

     Forces acting on atoms (cartesian axes, Ry/au):

     atom    1 type  1   force =     0.00000000    0.00000000    0.00000000

     Total force =     0.000000     Total SCF correction =     0.000000


     Computing stress (Cartesian axis) and pressure


     negative rho (up, down):  2.910E-04 0.000E+00
          total   stress  (Ry/bohr**3)                   (kbar)     P=     -153.00
  -0.00104005   0.00000000  -0.00000000         -153.00        0.00       -0.00
   0.00000000  -0.00104005   0.00000000            0.00     -153.00        0.00
  -0.00000000  -0.00000000  -0.00104005           -0.00       -0.00     -153.00


     Writing all to output data dir ./platinum.save/ :
     XML data file, charge density, pseudopotentials, collected wavefunctions

     init_run     :      0.23s CPU      0.28s WALL (       1 calls)
     electrons    :      2.18s CPU      2.44s WALL (       1 calls)
     forces       :      0.04s CPU      0.04s WALL (       1 calls)
     stress       :      0.17s CPU      0.17s WALL (       1 calls)

     Called by init_run:
     wfcinit      :      0.05s CPU      0.08s WALL (       1 calls)
     potinit      :      0.01s CPU      0.01s WALL (       1 calls)
     hinit0       :      0.16s CPU      0.18s WALL (       1 calls)

     Called by electrons:
     c_bands      :      1.73s CPU      1.98s WALL (       9 calls)
     sum_band     :      0.35s CPU      0.36s WALL (       9 calls)
     v_of_rho     :      0.00s CPU      0.00s WALL (       9 calls)
     newd         :      0.11s CPU      0.11s WALL (       9 calls)
     mix_rho      :      0.00s CPU      0.00s WALL (       9 calls)

     Called by c_bands:
     init_us_2    :      0.03s CPU      0.03s WALL (     735 calls)
     cegterg      :      1.63s CPU      1.86s WALL (     315 calls)

     Called by *egterg:
     cdiaghg      :      0.11s CPU      0.12s WALL (    1581 calls)
     h_psi        :      0.92s CPU      1.08s WALL (    1651 calls)
     s_psi        :      0.15s CPU      0.18s WALL (    1651 calls)
     g_psi        :      0.02s CPU      0.02s WALL (    1301 calls)

     Called by h_psi:
     h_psi:calbec :      0.12s CPU      0.14s WALL (    1651 calls)
     vloc_psi     :      0.63s CPU      0.74s WALL (    1651 calls)
     add_vuspsi   :      0.15s CPU      0.17s WALL (    1651 calls)

     General routines
     calbec       :      0.17s CPU      0.19s WALL (    2141 calls)
     fft          :      0.01s CPU      0.03s WALL (      99 calls)
     ffts         :      0.00s CPU      0.00s WALL (      36 calls)
     fftw         :      0.47s CPU      0.55s WALL (   54384 calls)

     Parallel routines

     PWSCF        :      2.73s CPU      3.05s WALL


   This run was terminated on:  22: 2: 2   4Nov2024            

=------------------------------------------------------------------------------=
   JOB DONE.
=------------------------------------------------------------------------------=
