
     Program PWSCF v.7.3.1 starts on  4Nov2024 at 22: 2:55 

     This program is part of the open-source Quantum ESPRESSO suite
     for quantum simulation of materials; please cite
         "P. Giannozzi et al., J. Phys.:Condens. Matter 21 395502 (2009);
         "P. Giannozzi et al., J. Phys.:Condens. Matter 29 465901 (2017);
         "P. Giannozzi et al., J. Chem. Phys. 152 154105 (2020);
          URL http://www.quantum-espresso.org", 
     in publications or presentations arising from this work. More details at
     http://www.quantum-espresso.org/quote

     Parallel version (MPI), running on     1 processors

     MPI processes distributed on     1 nodes
     11819 MiB available memory on the printing compute node when the environment starts

     Waiting for input...
     Reading input from standard input

     Current dimensions of program PWSCF are:
     Max number of different atomic species (ntypx) = 10
     Max number of k-points (npk) =  40000
     Max angular momentum in pseudopotentials (lmaxx) =  4

     Subspace diagonalization in iterative solution of the eigenvalue problem:
     a serial algorithm will be used


     G-vector sticks info
     --------------------
     sticks:   dense  smooth     PW     G-vecs:    dense   smooth      PW
     Sum         163     163     61                 1459     1459     331

     Using Slab Decomposition



     bravais-lattice index     =            2
     lattice parameter (alat)  =       7.9200  a.u.
     unit-cell volume          =     124.1983 (a.u.)^3
     number of atoms/cell      =            1
     number of atomic types    =            1
     number of electrons       =        10.00
     number of Kohn-Sham states=           10
     kinetic-energy cutoff     =      20.0000  Ry
     charge density cutoff     =      80.0000  Ry
     scf convergence threshold =      1.0E-08
     mixing beta               =       0.7000
     number of iterations used =            8  plain     mixing
     Exchange-correlation=  SLA  PZ   NOGX NOGC
                           (   1   1   0   0   0   0   0)
     Non magnetic calculation with spin-orbit


     celldm(1)=   7.920000  celldm(2)=   0.000000  celldm(3)=   0.000000
     celldm(4)=   0.000000  celldm(5)=   0.000000  celldm(6)=   0.000000

     crystal axes: (cart. coord. in units of alat)
               a(1) = (  -0.500000   0.000000   0.500000 )  
               a(2) = (   0.000000   0.500000   0.500000 )  
               a(3) = (  -0.500000   0.500000   0.000000 )  

     reciprocal axes: (cart. coord. in units 2 pi/alat)
               b(1) = ( -1.000000 -1.000000  1.000000 )  
               b(2) = (  1.000000  1.000000  1.000000 )  
               b(3) = ( -1.000000  1.000000 -1.000000 )  


     PseudoPot. # 1 for Pt read from file:
     /home/dashlander/Desktop/Sem7/CPD/Assignment_3/pseudo/Pt.rel-pz-n-rrkjus.UPF
     MD5 check sum: 4baafe8ec1942611396c7a5466f52249
     Pseudo is Ultrasoft + core correction, Zval = 10.0
     Generated by new atomic code, or converted to UPF format
     Using radial grid of 1277 points,  6 beta functions with: 
                l(1) =   2
                l(2) =   2
                l(3) =   2
                l(4) =   2
                l(5) =   1
                l(6) =   1
     Q(r) pseudized with 0 coefficients 


     atomic species   valence    mass     pseudopotential
     Pt               10.00   195.08400     Pt( 1.00)

     48 Sym. Ops., with inversion, found



   Cartesian axes

     site n.     atom                  positions (alat units)
         1        Pt     tau(   1) = (   0.0000000   0.0000000   0.0000000  )

     number of k points=    35
                       cart. coord. in units 2pi/alat
        k(    1) = (   0.0000000   0.0000000   0.0000000), wk =   0.0013717
        k(    2) = (  -0.1111111   0.1111111  -0.1111111), wk =   0.0109739
        k(    3) = (  -0.2222222   0.2222222  -0.2222222), wk =   0.0109739
        k(    4) = (  -0.3333333   0.3333333  -0.3333333), wk =   0.0109739
        k(    5) = (  -0.4444444   0.4444444  -0.4444444), wk =   0.0109739
        k(    6) = (   0.0000000   0.2222222   0.0000000), wk =   0.0082305
        k(    7) = (  -0.1111111   0.3333333  -0.1111111), wk =   0.0329218
        k(    8) = (  -0.2222222   0.4444444  -0.2222222), wk =   0.0329218
        k(    9) = (  -0.3333333   0.5555556  -0.3333333), wk =   0.0329218
        k(   10) = (   0.5555556  -0.3333333   0.5555556), wk =   0.0329218
        k(   11) = (   0.4444444  -0.2222222   0.4444444), wk =   0.0329218
        k(   12) = (   0.3333333  -0.1111111   0.3333333), wk =   0.0329218
        k(   13) = (   0.2222222  -0.0000000   0.2222222), wk =   0.0164609
        k(   14) = (   0.0000000   0.4444444   0.0000000), wk =   0.0082305
        k(   15) = (  -0.1111111   0.5555556  -0.1111111), wk =   0.0329218
        k(   16) = (  -0.2222222   0.6666667  -0.2222222), wk =   0.0329218
        k(   17) = (   0.6666667  -0.2222222   0.6666667), wk =   0.0329218
        k(   18) = (   0.5555556  -0.1111111   0.5555556), wk =   0.0329218
        k(   19) = (   0.4444444   0.0000000   0.4444444), wk =   0.0164609
        k(   20) = (   0.0000000   0.6666667   0.0000000), wk =   0.0082305
        k(   21) = (  -0.1111111   0.7777778  -0.1111111), wk =   0.0329218
        k(   22) = (   0.7777778  -0.1111111   0.7777778), wk =   0.0329218
        k(   23) = (   0.6666667  -0.0000000   0.6666667), wk =   0.0164609
        k(   24) = (   0.0000000   0.8888889   0.0000000), wk =   0.0082305
        k(   25) = (   0.8888889   0.0000000   0.8888889), wk =   0.0164609
        k(   26) = (  -0.2222222   0.4444444   0.0000000), wk =   0.0329218
        k(   27) = (  -0.3333333   0.5555556  -0.1111111), wk =   0.0658436
        k(   28) = (   0.5555556  -0.3333333   0.7777778), wk =   0.0658436
        k(   29) = (  -0.2222222   0.6666667   0.0000000), wk =   0.0329218
        k(   30) = (   0.6666667  -0.2222222   0.8888889), wk =   0.0658436
        k(   31) = (   0.5555556  -0.1111111   0.7777778), wk =   0.0658436
        k(   32) = (   0.4444444   0.0000000   0.6666667), wk =   0.0329218
        k(   33) = (   0.7777778  -0.1111111   1.0000000), wk =   0.0329218
        k(   34) = (   0.6666667  -0.0000000   0.8888889), wk =   0.0329218
        k(   35) = (   0.5555556  -0.1111111   1.0000000), wk =   0.0329218

     Dense  grid:     1459 G-vectors     FFT dimensions: (  15,  15,  15)

     Estimated max dynamical RAM per process >      13.97 MB

     Check: negative core charge=   -0.000063

     Initial potential from superposition of free atoms

     starting charge       9.9999, renormalised to      10.0000

     negative rho (up, down):  2.804E-04 0.000E+00
     Starting wfcs are   12 randomized atomic wfcs

     total cpu time spent up to now is        0.4 secs

     Self-consistent Calculation

     iteration #  1     ecut=    20.00 Ry     beta= 0.70
     Davidson diagonalization with overlap
     ethr =  1.00E-02,  avg # of iterations =  2.0

     Threshold (ethr) on eigenvalues was too large:
     Diagonalizing with lowered threshold

     Davidson diagonalization with overlap
     ethr =  5.34E-05,  avg # of iterations =  6.1

     negative rho (up, down):  3.582E-04 0.000E+00

     total cpu time spent up to now is        0.9 secs

     total energy              =     -69.43372702 Ry
     estimated scf accuracy    <       0.00155021 Ry

     iteration #  2     ecut=    20.00 Ry     beta= 0.70
     Davidson diagonalization with overlap
     ethr =  1.55E-05,  avg # of iterations =  2.3

     negative rho (up, down):  3.811E-04 0.000E+00

     total cpu time spent up to now is        1.1 secs

     total energy              =     -69.43402797 Ry
     estimated scf accuracy    <       0.00015239 Ry

     iteration #  3     ecut=    20.00 Ry     beta= 0.70
     Davidson diagonalization with overlap
     ethr =  1.52E-06,  avg # of iterations =  3.3

     negative rho (up, down):  3.951E-04 0.000E+00

     total cpu time spent up to now is        1.4 secs

     total energy              =     -69.43408084 Ry
     estimated scf accuracy    <       0.00000902 Ry

     iteration #  4     ecut=    20.00 Ry     beta= 0.70
     Davidson diagonalization with overlap
     ethr =  9.02E-08,  avg # of iterations =  5.5

     negative rho (up, down):  3.949E-04 0.000E+00

     total cpu time spent up to now is        1.7 secs

     total energy              =     -69.43408785 Ry
     estimated scf accuracy    <       0.00000021 Ry

     iteration #  5     ecut=    20.00 Ry     beta= 0.70
     Davidson diagonalization with overlap
     ethr =  2.05E-09,  avg # of iterations =  8.0

     negative rho (up, down):  3.950E-04 0.000E+00

     total cpu time spent up to now is        2.0 secs

     total energy              =     -69.43408825 Ry
     estimated scf accuracy    <       0.00000001 Ry

     iteration #  6     ecut=    20.00 Ry     beta= 0.70
     Davidson diagonalization with overlap
     ethr =  1.07E-10,  avg # of iterations =  4.9

     negative rho (up, down):  3.950E-04 0.000E+00

     total cpu time spent up to now is        2.3 secs

     End of self-consistent calculation

          k = 0.0000 0.0000 0.0000 (   169 PWs)   bands (ev):

     4.7518   4.7518   9.8187   9.8187   9.8187   9.8187  10.8554  10.8554
    12.0867  12.0867

          k =-0.1111 0.1111-0.1111 (   172 PWs)   bands (ev):

     5.1543   5.1543   9.8040   9.8040   9.8835   9.8835  10.9334  10.9334
    11.9623  11.9623

          k =-0.2222 0.2222-0.2222 (   181 PWs)   bands (ev):

     6.2113   6.2113   9.7887   9.7887   9.9349   9.9349  11.1463  11.1463
    11.8552  11.8552

          k =-0.3333 0.3333-0.3333 (   183 PWs)   bands (ev):

     7.2067   7.2067   9.8320   9.8320  10.4949  10.4949  10.9863  10.9863
    12.3768  12.3768

          k =-0.4444 0.4444-0.4444 (   183 PWs)   bands (ev):

     7.4653   7.4653   9.7103   9.7103  10.7429  10.7429  12.3999  12.3999
    12.9484  12.9484

          k = 0.0000 0.2222 0.0000 (   173 PWs)   bands (ev):

     5.2902   5.2902   9.6943   9.6943   9.9945   9.9945  10.9766  10.9766
    11.8495  11.8495

          k =-0.1111 0.3333-0.1111 (   178 PWs)   bands (ev):

     6.1504   6.1504   9.5327   9.5327  10.0955  10.0955  11.2316  11.2316
    11.7073  11.7073

          k =-0.2222 0.4444-0.2222 (   188 PWs)   bands (ev):

     7.2783   7.2783   9.6666   9.6666  10.0019  10.0019  11.1450  11.1450
    12.2861  12.2861

          k =-0.3333 0.5556-0.3333 (   188 PWs)   bands (ev):

     7.7349   7.7349   9.7269   9.7269  10.6628  10.6628  11.1333  11.1333
    13.0592  13.0592

          k = 0.5556-0.3333 0.5556 (   182 PWs)   bands (ev):

     7.7792   7.7792   9.6757   9.6757  10.7251  10.7251  11.6529  11.6529
    13.0398  13.0398

          k = 0.4444-0.2222 0.4444 (   189 PWs)   bands (ev):

     7.6902   7.6902   9.7702   9.7702  10.5677  10.5677  10.9518  10.9518
    12.4482  12.4482

          k = 0.3333-0.1111 0.3333 (   185 PWs)   bands (ev):

     6.9442   6.9442   9.6244   9.6244  10.0257  10.0257  11.2061  11.2061
    11.7580  11.7580

          k = 0.2222-0.0000 0.2222 (   178 PWs)   bands (ev):

     5.7912   5.7912   9.6766   9.6766  10.0023  10.0023  11.1101  11.1101
    11.7330  11.7330

          k = 0.0000 0.4444 0.0000 (   182 PWs)   bands (ev):

     6.7173   6.7173   9.1948   9.1948  10.3004  10.3004  11.5496  11.5496
    11.6688  11.6688

          k =-0.1111 0.5556-0.1111 (   186 PWs)   bands (ev):

     7.6397   7.6397   8.9895   8.9895  10.2583  10.2583  11.6976  11.6976
    12.2977  12.2977

          k =-0.2222 0.6667-0.2222 (   191 PWs)   bands (ev):

     8.2129   8.2129   9.2663   9.2663  10.1666  10.1666  11.5399  11.5399
    13.1367  13.1367

          k = 0.6667-0.2222 0.6667 (   182 PWs)   bands (ev):

     8.3870   8.3870   9.4441   9.4441  10.4735  10.4735  11.3890  11.3890
    13.0888  13.0888

          k = 0.5556-0.1111 0.5556 (   186 PWs)   bands (ev):

     8.5298   8.5298   9.5338   9.5338  10.2590  10.2590  11.2127  11.2127
    12.4907  12.4907

          k = 0.4444 0.0000 0.4444 (   184 PWs)   bands (ev):

     8.0889   8.0889   9.4523   9.4523   9.9640   9.9640  11.2477  11.2477
    11.8480  11.8480

          k = 0.0000 0.6667 0.0000 (   194 PWs)   bands (ev):

     7.8560   7.8560   8.5861   8.5861  11.1858  11.1858  12.3496  12.3496
    12.4383  12.4383

          k =-0.1111 0.7778-0.1111 (   193 PWs)   bands (ev):

     8.0639   8.0639   8.5021   8.5021  11.4234  11.4234  12.4301  12.4301
    13.2419  13.2419

          k = 0.7778-0.1111 0.7778 (   188 PWs)   bands (ev):

     8.3173   8.3173   8.8565   8.8565  11.0227  11.0227  12.1455  12.1455
    13.2670  13.2670

          k = 0.6667-0.0000 0.6667 (   186 PWs)   bands (ev):

     8.6661   8.6661   9.3372   9.3372  10.3910  10.3910  11.7178  11.7178
    12.8131  12.8131

          k = 0.0000 0.8889 0.0000 (   190 PWs)   bands (ev):

     7.8144   7.8144   8.2060   8.2060  12.8017  12.8017  12.8949  12.8949
    13.8839  13.8839

          k = 0.8889 0.0000 0.8889 (   192 PWs)   bands (ev):

     7.9476   7.9476   8.3111   8.3111  12.2936  12.2936  12.7423  12.7423
    13.6242  13.6242

          k =-0.2222 0.4444 0.0000 (   184 PWs)   bands (ev):

     7.1207   7.1207   9.3099   9.3099  10.0871  10.0871  11.5399  11.5399
    11.6524  11.6524

          k =-0.3333 0.5556-0.1111 (   188 PWs)   bands (ev):

     8.0989   8.0989   9.4765   9.4765   9.8736   9.8736  11.3753  11.3753
    12.3534  12.3534

          k = 0.5556-0.3333 0.7778 (   188 PWs)   bands (ev):

     8.2924   8.2924   9.5230   9.5230  10.4374  10.4374  11.2801  11.2801
    12.9526  12.9526

          k =-0.2222 0.6667 0.0000 (   187 PWs)   bands (ev):

     8.2536   8.2536   8.8146   8.8146  10.3244  10.3244  12.2553  12.2553
    12.4699  12.4699

          k = 0.6667-0.2222 0.8889 (   190 PWs)   bands (ev):

     8.5788   8.5788   9.0728   9.0728  10.2264  10.2264  12.0080  12.0080
    13.0676  13.0676

          k = 0.5556-0.1111 0.7778 (   190 PWs)   bands (ev):

     8.8395   8.8395   9.2574   9.2574  10.1367  10.1367  11.7092  11.7092
    13.0053  13.0053

          k = 0.4444 0.0000 0.6667 (   192 PWs)   bands (ev):

     8.9916   8.9916   9.3030   9.3030   9.6666   9.6666  11.6971  11.6971
    12.5137  12.5137

          k = 0.7778-0.1111 1.0000 (   192 PWs)   bands (ev):

     8.1763   8.1763   8.4922   8.4922  11.4605  11.4605  12.6117  12.6117
    13.4363  13.4363

          k = 0.6667-0.0000 0.8889 (   193 PWs)   bands (ev):

     8.4952   8.4952   8.8985   8.8985  10.7878  10.7878  12.1394  12.1394
    13.3795  13.3795

          k = 0.5556-0.1111 1.0000 (   194 PWs)   bands (ev):

     8.8450   8.8450   9.3002   9.3002   9.9574   9.9574  11.8941  11.8941
    13.3382  13.3382

     highest occupied level (ev):    13.8839

!    total energy              =     -69.43408825 Ry
     estimated scf accuracy    <          1.9E-11 Ry

     The total energy is the sum of the following terms:
     one-electron contribution =      11.82066656 Ry
     hartree contribution      =       4.99036243 Ry
     xc contribution           =     -28.35544456 Ry
     ewald contribution        =     -57.88967269 Ry

     convergence has been achieved in   6 iterations

     negative rho (up, down):  3.950E-04 0.000E+00

     Forces acting on atoms (cartesian axes, Ry/au):

     atom    1 type  1   force =     0.00000000    0.00000000    0.00000000

     Total force =     0.000000     Total SCF correction =     0.000000


     Computing stress (Cartesian axis) and pressure


     negative rho (up, down):  3.950E-04 0.000E+00
          total   stress  (Ry/bohr**3)                   (kbar)     P=     -296.42
  -0.00201499  -0.00000000  -0.00000000         -296.42       -0.00       -0.00
  -0.00000000  -0.00201499   0.00000000           -0.00     -296.42        0.00
  -0.00000000   0.00000000  -0.00201499           -0.00        0.00     -296.42


     Writing all to output data dir ./platinum.save/ :
     XML data file, charge density, pseudopotentials, collected wavefunctions

     init_run     :      0.25s CPU      0.28s WALL (       1 calls)
     electrons    :      1.65s CPU      1.87s WALL (       1 calls)
     forces       :      0.04s CPU      0.04s WALL (       1 calls)
     stress       :      0.18s CPU      0.18s WALL (       1 calls)

     Called by init_run:
     wfcinit      :      0.06s CPU      0.08s WALL (       1 calls)
     potinit      :      0.01s CPU      0.01s WALL (       1 calls)
     hinit0       :      0.16s CPU      0.17s WALL (       1 calls)

     Called by electrons:
     c_bands      :      1.32s CPU      1.51s WALL (       7 calls)
     sum_band     :      0.25s CPU      0.27s WALL (       7 calls)
     v_of_rho     :      0.00s CPU      0.00s WALL (       7 calls)
     newd         :      0.08s CPU      0.09s WALL (       7 calls)
     mix_rho      :      0.00s CPU      0.00s WALL (       7 calls)

     Called by c_bands:
     init_us_2    :      0.02s CPU      0.02s WALL (     595 calls)
     cegterg      :      1.24s CPU      1.42s WALL (     245 calls)

     Called by *egterg:
     cdiaghg      :      0.08s CPU      0.09s WALL (    1333 calls)
     h_psi        :      0.71s CPU      0.82s WALL (    1403 calls)
     s_psi        :      0.12s CPU      0.14s WALL (    1403 calls)
     g_psi        :      0.01s CPU      0.01s WALL (    1123 calls)

     Called by h_psi:
     h_psi:calbec :      0.10s CPU      0.11s WALL (    1403 calls)
     vloc_psi     :      0.47s CPU      0.55s WALL (    1403 calls)
     add_vuspsi   :      0.12s CPU      0.14s WALL (    1403 calls)

     General routines
     calbec       :      0.14s CPU      0.16s WALL (    1823 calls)
     fft          :      0.02s CPU      0.03s WALL (      79 calls)
     ffts         :      0.00s CPU      0.00s WALL (      28 calls)
     fftw         :      0.35s CPU      0.41s WALL (   41960 calls)

     Parallel routines

     PWSCF        :      2.21s CPU      2.48s WALL


   This run was terminated on:  22: 2:57   4Nov2024            

=------------------------------------------------------------------------------=
   JOB DONE.
=------------------------------------------------------------------------------=
