
     Program PWSCF v.7.3.1 starts on  4Nov2024 at 22: 0:52 

     This program is part of the open-source Quantum ESPRESSO suite
     for quantum simulation of materials; please cite
         "P. Giannozzi et al., J. Phys.:Condens. Matter 21 395502 (2009);
         "P. Giannozzi et al., J. Phys.:Condens. Matter 29 465901 (2017);
         "P. Giannozzi et al., J. Chem. Phys. 152 154105 (2020);
          URL http://www.quantum-espresso.org", 
     in publications or presentations arising from this work. More details at
     http://www.quantum-espresso.org/quote

     Parallel version (MPI), running on     1 processors

     MPI processes distributed on     1 nodes
     11875 MiB available memory on the printing compute node when the environment starts

     Waiting for input...
     Reading input from standard input

     Current dimensions of program PWSCF are:
     Max number of different atomic species (ntypx) = 10
     Max number of k-points (npk) =  40000
     Max angular momentum in pseudopotentials (lmaxx) =  4

     Subspace diagonalization in iterative solution of the eigenvalue problem:
     a serial algorithm will be used


     G-vector sticks info
     --------------------
     sticks:   dense  smooth     PW     G-vecs:    dense   smooth      PW
     Sum         151     151     55                 1243     1243     283

     Using Slab Decomposition



     bravais-lattice index     =            2
     lattice parameter (alat)  =       7.3600  a.u.
     unit-cell volume          =      99.6721 (a.u.)^3
     number of atoms/cell      =            1
     number of atomic types    =            1
     number of electrons       =        10.00
     number of Kohn-Sham states=           10
     kinetic-energy cutoff     =      20.0000  Ry
     charge density cutoff     =      80.0000  Ry
     scf convergence threshold =      1.0E-08
     mixing beta               =       0.7000
     number of iterations used =            8  plain     mixing
     Exchange-correlation=  SLA  PZ   NOGX NOGC
                           (   1   1   0   0   0   0   0)
     Non magnetic calculation with spin-orbit


     celldm(1)=   7.360000  celldm(2)=   0.000000  celldm(3)=   0.000000
     celldm(4)=   0.000000  celldm(5)=   0.000000  celldm(6)=   0.000000

     crystal axes: (cart. coord. in units of alat)
               a(1) = (  -0.500000   0.000000   0.500000 )  
               a(2) = (   0.000000   0.500000   0.500000 )  
               a(3) = (  -0.500000   0.500000   0.000000 )  

     reciprocal axes: (cart. coord. in units 2 pi/alat)
               b(1) = ( -1.000000 -1.000000  1.000000 )  
               b(2) = (  1.000000  1.000000  1.000000 )  
               b(3) = ( -1.000000  1.000000 -1.000000 )  


     PseudoPot. # 1 for Pt read from file:
     /home/dashlander/Desktop/Sem7/CPD/Assignment_3/pseudo/Pt.rel-pz-n-rrkjus.UPF
     MD5 check sum: 4baafe8ec1942611396c7a5466f52249
     Pseudo is Ultrasoft + core correction, Zval = 10.0
     Generated by new atomic code, or converted to UPF format
     Using radial grid of 1277 points,  6 beta functions with: 
                l(1) =   2
                l(2) =   2
                l(3) =   2
                l(4) =   2
                l(5) =   1
                l(6) =   1
     Q(r) pseudized with 0 coefficients 


     atomic species   valence    mass     pseudopotential
     Pt               10.00   195.08400     Pt( 1.00)

     48 Sym. Ops., with inversion, found



   Cartesian axes

     site n.     atom                  positions (alat units)
         1        Pt     tau(   1) = (   0.0000000   0.0000000   0.0000000  )

     number of k points=    35
                       cart. coord. in units 2pi/alat
        k(    1) = (   0.0000000   0.0000000   0.0000000), wk =   0.0013717
        k(    2) = (  -0.1111111   0.1111111  -0.1111111), wk =   0.0109739
        k(    3) = (  -0.2222222   0.2222222  -0.2222222), wk =   0.0109739
        k(    4) = (  -0.3333333   0.3333333  -0.3333333), wk =   0.0109739
        k(    5) = (  -0.4444444   0.4444444  -0.4444444), wk =   0.0109739
        k(    6) = (   0.0000000   0.2222222   0.0000000), wk =   0.0082305
        k(    7) = (  -0.1111111   0.3333333  -0.1111111), wk =   0.0329218
        k(    8) = (  -0.2222222   0.4444444  -0.2222222), wk =   0.0329218
        k(    9) = (  -0.3333333   0.5555556  -0.3333333), wk =   0.0329218
        k(   10) = (   0.5555556  -0.3333333   0.5555556), wk =   0.0329218
        k(   11) = (   0.4444444  -0.2222222   0.4444444), wk =   0.0329218
        k(   12) = (   0.3333333  -0.1111111   0.3333333), wk =   0.0329218
        k(   13) = (   0.2222222  -0.0000000   0.2222222), wk =   0.0164609
        k(   14) = (   0.0000000   0.4444444   0.0000000), wk =   0.0082305
        k(   15) = (  -0.1111111   0.5555556  -0.1111111), wk =   0.0329218
        k(   16) = (  -0.2222222   0.6666667  -0.2222222), wk =   0.0329218
        k(   17) = (   0.6666667  -0.2222222   0.6666667), wk =   0.0329218
        k(   18) = (   0.5555556  -0.1111111   0.5555556), wk =   0.0329218
        k(   19) = (   0.4444444   0.0000000   0.4444444), wk =   0.0164609
        k(   20) = (   0.0000000   0.6666667   0.0000000), wk =   0.0082305
        k(   21) = (  -0.1111111   0.7777778  -0.1111111), wk =   0.0329218
        k(   22) = (   0.7777778  -0.1111111   0.7777778), wk =   0.0329218
        k(   23) = (   0.6666667  -0.0000000   0.6666667), wk =   0.0164609
        k(   24) = (   0.0000000   0.8888889   0.0000000), wk =   0.0082305
        k(   25) = (   0.8888889   0.0000000   0.8888889), wk =   0.0164609
        k(   26) = (  -0.2222222   0.4444444   0.0000000), wk =   0.0329218
        k(   27) = (  -0.3333333   0.5555556  -0.1111111), wk =   0.0658436
        k(   28) = (   0.5555556  -0.3333333   0.7777778), wk =   0.0658436
        k(   29) = (  -0.2222222   0.6666667   0.0000000), wk =   0.0329218
        k(   30) = (   0.6666667  -0.2222222   0.8888889), wk =   0.0658436
        k(   31) = (   0.5555556  -0.1111111   0.7777778), wk =   0.0658436
        k(   32) = (   0.4444444   0.0000000   0.6666667), wk =   0.0329218
        k(   33) = (   0.7777778  -0.1111111   1.0000000), wk =   0.0329218
        k(   34) = (   0.6666667  -0.0000000   0.8888889), wk =   0.0329218
        k(   35) = (   0.5555556  -0.1111111   1.0000000), wk =   0.0329218

     Dense  grid:     1243 G-vectors     FFT dimensions: (  15,  15,  15)

     Estimated max dynamical RAM per process >      11.99 MB

     Check: negative core charge=   -0.000027

     Initial potential from superposition of free atoms

     starting charge       9.9999, renormalised to      10.0000

     negative rho (up, down):  9.753E-05 0.000E+00
     Starting wfcs are   12 randomized atomic wfcs

     total cpu time spent up to now is        0.4 secs

     Self-consistent Calculation

     iteration #  1     ecut=    20.00 Ry     beta= 0.70
     Davidson diagonalization with overlap
     ethr =  1.00E-02,  avg # of iterations =  2.2

     Threshold (ethr) on eigenvalues was too large:
     Diagonalizing with lowered threshold

     Davidson diagonalization with overlap
     ethr =  1.60E-05,  avg # of iterations =  7.7

     negative rho (up, down):  1.880E-04 0.000E+00

     total cpu time spent up to now is        0.9 secs

     total energy              =     -69.45418507 Ry
     estimated scf accuracy    <       0.00433804 Ry

     iteration #  2     ecut=    20.00 Ry     beta= 0.70
     Davidson diagonalization with overlap
     ethr =  4.34E-05,  avg # of iterations =  2.1

     negative rho (up, down):  2.128E-04 0.000E+00

     total cpu time spent up to now is        1.1 secs

     total energy              =     -69.45534059 Ry
     estimated scf accuracy    <       0.00049266 Ry

     iteration #  3     ecut=    20.00 Ry     beta= 0.70
     Davidson diagonalization with overlap
     ethr =  4.93E-06,  avg # of iterations =  2.0

     negative rho (up, down):  2.314E-04 0.000E+00

     total cpu time spent up to now is        1.3 secs

     total energy              =     -69.45541801 Ry
     estimated scf accuracy    <       0.00001511 Ry

     iteration #  4     ecut=    20.00 Ry     beta= 0.70
     Davidson diagonalization with overlap
     ethr =  1.51E-07,  avg # of iterations =  6.0

     negative rho (up, down):  2.315E-04 0.000E+00

     total cpu time spent up to now is        1.6 secs

     total energy              =     -69.45543636 Ry
     estimated scf accuracy    <       0.00000295 Ry

     iteration #  5     ecut=    20.00 Ry     beta= 0.70
     Davidson diagonalization with overlap
     ethr =  2.95E-08,  avg # of iterations =  3.3

     negative rho (up, down):  2.319E-04 0.000E+00

     total cpu time spent up to now is        1.8 secs

     total energy              =     -69.45543699 Ry
     estimated scf accuracy    <       0.00000014 Ry

     iteration #  6     ecut=    20.00 Ry     beta= 0.70
     Davidson diagonalization with overlap
     ethr =  1.43E-09,  avg # of iterations =  6.0

     negative rho (up, down):  2.320E-04 0.000E+00

     total cpu time spent up to now is        2.1 secs

     End of self-consistent calculation

          k = 0.0000 0.0000 0.0000 (   169 PWs)   bands (ev):

     7.6246   7.6246  13.8484  13.8484  13.8484  13.8484  14.8371  14.8371
    16.6913  16.6913

          k =-0.1111 0.1111-0.1111 (   153 PWs)   bands (ev):

     8.1196   8.1196  13.7919  13.7919  13.9600  13.9600  14.9518  14.9518
    16.5221  16.5221

          k =-0.2222 0.2222-0.2222 (   150 PWs)   bands (ev):

     9.3713   9.3713  13.6873  13.6873  14.0504  14.0504  15.2396  15.2396
    16.4321  16.4321

          k =-0.3333 0.3333-0.3333 (   153 PWs)   bands (ev):

    10.4074  10.4074  13.8784  13.8784  14.5914  14.5914  15.0012  15.0012
    17.2076  17.2076

          k =-0.4444 0.4444-0.4444 (   147 PWs)   bands (ev):

    10.5934  10.5934  13.6838  13.6838  14.6960  14.6960  16.8221  16.8221
    17.9437  17.9437

          k = 0.0000 0.2222 0.0000 (   153 PWs)   bands (ev):

     8.2864   8.2864  13.6202  13.6202  14.1238  14.1238  15.0347  15.0347
    16.2918  16.2918

          k =-0.1111 0.3333-0.1111 (   154 PWs)   bands (ev):

     9.3171   9.3171  13.3269  13.3269  14.2715  14.2715  15.4002  15.4002
    16.1175  16.1175

          k =-0.2222 0.4444-0.2222 (   151 PWs)   bands (ev):

    10.5688  10.5688  13.5138  13.5138  14.0293  14.0293  15.2540  15.2540
    17.0603  17.0603

          k =-0.3333 0.5556-0.3333 (   151 PWs)   bands (ev):

    10.9629  10.9629  13.6695  13.6695  14.6946  14.6946  15.2195  15.2195
    18.2109  18.2109

          k = 0.5556-0.3333 0.5556 (   156 PWs)   bands (ev):

    10.9861  10.9861  13.5908  13.5908  14.7084  14.7084  15.9126  15.9126
    18.1432  18.1432

          k = 0.4444-0.2222 0.4444 (   151 PWs)   bands (ev):

    10.9564  10.9564  13.7617  13.7617  14.6102  14.6102  14.9716  14.9716
    17.2500  17.2500

          k = 0.3333-0.1111 0.3333 (   149 PWs)   bands (ev):

    10.2304  10.2304  13.4450  13.4450  14.1284  14.1284  15.3338  15.3338
    16.2244  16.2244

          k = 0.2222-0.0000 0.2222 (   157 PWs)   bands (ev):

     8.8905   8.8905  13.5575  13.5575  14.1416  14.1416  15.2166  15.2166
    16.1592  16.1592

          k = 0.0000 0.4444 0.0000 (   149 PWs)   bands (ev):

     9.9744   9.9744  12.8095  12.8095  14.5630  14.5630  15.9473  15.9473
    15.9796  15.9796

          k =-0.1111 0.5556-0.1111 (   149 PWs)   bands (ev):

    10.9843  10.9843  12.5011  12.5011  14.3764  14.3764  16.1234  16.1234
    17.0812  17.0812

          k =-0.2222 0.6667-0.2222 (   149 PWs)   bands (ev):

    11.5408  11.5408  12.8750  12.8750  14.1521  14.1521  15.8896  15.8896
    18.3393  18.3393

          k = 0.6667-0.2222 0.6667 (   153 PWs)   bands (ev):

    11.7478  11.7478  13.1293  13.1293  14.4759  14.4759  15.6431  15.6431
    18.2197  18.2197

          k = 0.5556-0.1111 0.5556 (   155 PWs)   bands (ev):

    11.9953  11.9953  13.3181  13.3181  14.1072  14.1072  15.4596  15.4596
    17.2869  17.2869

          k = 0.4444 0.0000 0.4444 (   152 PWs)   bands (ev):

    11.5831  11.5831  13.1855  13.1855  13.8804  13.8804  15.5065  15.5065
    16.2984  16.2984

          k = 0.0000 0.6667 0.0000 (   153 PWs)   bands (ev):

    11.0846  11.0846  11.9198  11.9198  15.6351  15.6351  17.1745  17.1745
    17.2342  17.2342

          k =-0.1111 0.7778-0.1111 (   154 PWs)   bands (ev):

    11.2418  11.2418  11.8028  11.8028  15.8432  15.8432  17.2603  17.2603
    18.4222  18.4222

          k = 0.7778-0.1111 0.7778 (   148 PWs)   bands (ev):

    11.5532  11.5532  12.2920  12.2920  15.2270  15.2270  16.8455  16.8455
    18.4398  18.4398

          k = 0.6667-0.0000 0.6667 (   142 PWs)   bands (ev):

    12.0664  12.0664  12.9947  12.9947  14.2863  14.2863  16.2421  16.2421
    17.7470  17.7470

          k = 0.0000 0.8889 0.0000 (   150 PWs)   bands (ev):

    10.8618  10.8618  11.3862  11.3862  17.9492  17.9492  18.0737  18.0737
    19.0552  19.0552

          k = 0.8889 0.0000 0.8889 (   150 PWs)   bands (ev):

    11.0254  11.0254  11.5366  11.5366  17.0225  17.0225  17.8115  17.8115
    18.8516  18.8516

          k =-0.2222 0.4444 0.0000 (   150 PWs)   bands (ev):

    10.4568  10.4568  12.9721  12.9721  14.1792  14.1792  15.8480  15.8480
    16.0878  16.0878

          k =-0.3333 0.5556-0.1111 (   149 PWs)   bands (ev):

    11.5178  11.5178  13.2264  13.2264  13.7254  13.7254  15.6552  15.6552
    17.1075  17.1075

          k = 0.5556-0.3333 0.7778 (   152 PWs)   bands (ev):

    11.6587  11.6587  13.2684  13.2684  14.4281  14.4281  15.4556  15.4556
    18.0173  18.0173

          k =-0.2222 0.6667 0.0000 (   148 PWs)   bands (ev):

    11.6064  11.6064  12.2464  12.2464  14.3736  14.3736  16.9892  16.9892
    17.2738  17.2738

          k = 0.6667-0.2222 0.8889 (   151 PWs)   bands (ev):

    11.9503  11.9503  12.5963  12.5963  14.1613  14.1613  16.5867  16.5867
    18.1764  18.1764

          k = 0.5556-0.1111 0.7778 (   149 PWs)   bands (ev):

    12.3289  12.3289  12.8536  12.8536  13.9808  13.9808  16.1412  16.1412
    18.0791  18.0791

          k = 0.4444 0.0000 0.6667 (   151 PWs)   bands (ev):

    12.6521  12.6521  12.9926  12.9926  13.2462  13.2462  16.1498  16.1498
    17.3294  17.3294

          k = 0.7778-0.1111 1.0000 (   150 PWs)   bands (ev):

    11.3428  11.3428  11.7942  11.7942  15.8483  15.8483  17.5495  17.5495
    18.6536  18.6536

          k = 0.6667-0.0000 0.8889 (   149 PWs)   bands (ev):

    11.7728  11.7728  12.3638  12.3638  14.8929  14.8929  16.8047  16.8047
    18.6173  18.6173

          k = 0.5556-0.1111 1.0000 (   151 PWs)   bands (ev):

    12.2526  12.2526  12.9739  12.9739  13.7142  13.7142  16.4002  16.4002
    18.5857  18.5857

     highest occupied level (ev):    19.0552

!    total energy              =     -69.45543717 Ry
     estimated scf accuracy    <          5.2E-09 Ry

     The total energy is the sum of the following terms:
     one-electron contribution =      17.76475017 Ry
     hartree contribution      =       3.65309515 Ry
     xc contribution           =     -28.57896082 Ry
     ewald contribution        =     -62.29432168 Ry

     convergence has been achieved in   6 iterations

     negative rho (up, down):  2.320E-04 0.000E+00

     Forces acting on atoms (cartesian axes, Ry/au):

     atom    1 type  1   force =     0.00000000    0.00000000    0.00000000

     Total force =     0.000000     Total SCF correction =     0.000000


     Computing stress (Cartesian axis) and pressure


     negative rho (up, down):  2.320E-04 0.000E+00
          total   stress  (Ry/bohr**3)                   (kbar)     P=      136.27
   0.00092633  -0.00000000  -0.00000000          136.27       -0.00       -0.00
  -0.00000000   0.00092633   0.00000000           -0.00      136.27        0.00
  -0.00000000   0.00000000   0.00092633           -0.00        0.00      136.27


     Writing all to output data dir ./platinum.save/ :
     XML data file, charge density, pseudopotentials, collected wavefunctions

     init_run     :      0.23s CPU      0.27s WALL (       1 calls)
     electrons    :      1.49s CPU      1.74s WALL (       1 calls)
     forces       :      0.03s CPU      0.04s WALL (       1 calls)
     stress       :      0.15s CPU      0.15s WALL (       1 calls)

     Called by init_run:
     wfcinit      :      0.05s CPU      0.07s WALL (       1 calls)
     potinit      :      0.01s CPU      0.01s WALL (       1 calls)
     hinit0       :      0.16s CPU      0.17s WALL (       1 calls)

     Called by electrons:
     c_bands      :      1.20s CPU      1.41s WALL (       7 calls)
     sum_band     :      0.22s CPU      0.26s WALL (       7 calls)
     v_of_rho     :      0.00s CPU      0.00s WALL (       7 calls)
     newd         :      0.08s CPU      0.08s WALL (       7 calls)
     mix_rho      :      0.00s CPU      0.00s WALL (       7 calls)

     Called by c_bands:
     init_us_2    :      0.02s CPU      0.02s WALL (     595 calls)
     cegterg      :      1.13s CPU      1.33s WALL (     245 calls)

     Called by *egterg:
     cdiaghg      :      0.07s CPU      0.09s WALL (    1239 calls)
     h_psi        :      0.66s CPU      0.80s WALL (    1309 calls)
     s_psi        :      0.10s CPU      0.12s WALL (    1309 calls)
     g_psi        :      0.01s CPU      0.01s WALL (    1029 calls)

     Called by h_psi:
     h_psi:calbec :      0.08s CPU      0.10s WALL (    1309 calls)
     vloc_psi     :      0.47s CPU      0.56s WALL (    1309 calls)
     add_vuspsi   :      0.10s CPU      0.12s WALL (    1309 calls)

     General routines
     calbec       :      0.11s CPU      0.13s WALL (    1729 calls)
     fft          :      0.02s CPU      0.03s WALL (      79 calls)
     ffts         :      0.00s CPU      0.00s WALL (      28 calls)
     fftw         :      0.34s CPU      0.42s WALL (   42684 calls)

     Parallel routines

     PWSCF        :      2.00s CPU      2.30s WALL


   This run was terminated on:  22: 0:54   4Nov2024            

=------------------------------------------------------------------------------=
   JOB DONE.
=------------------------------------------------------------------------------=
