
     Program PWSCF v.7.3.1 starts on  4Nov2024 at 13:51:22 

     This program is part of the open-source Quantum ESPRESSO suite
     for quantum simulation of materials; please cite
         "P. Giannozzi et al., J. Phys.:Condens. Matter 21 395502 (2009);
         "P. Giannozzi et al., J. Phys.:Condens. Matter 29 465901 (2017);
         "P. Giannozzi et al., J. Chem. Phys. 152 154105 (2020);
          URL http://www.quantum-espresso.org", 
     in publications or presentations arising from this work. More details at
     http://www.quantum-espresso.org/quote

     Parallel version (MPI), running on     1 processors

     MPI processes distributed on     1 nodes
     14439 MiB available memory on the printing compute node when the environment starts

     Waiting for input...
     Reading input from standard input

     Current dimensions of program PWSCF are:
     Max number of different atomic species (ntypx) = 10
     Max number of k-points (npk) =  40000
     Max angular momentum in pseudopotentials (lmaxx) =  4

     Subspace diagonalization in iterative solution of the eigenvalue problem:
     a serial algorithm will be used


     G-vector sticks info
     --------------------
     sticks:   dense  smooth     PW     G-vecs:    dense   smooth      PW
     Sum         151     151     55                 1243     1243     259

     Using Slab Decomposition



     bravais-lattice index     =            2
     lattice parameter (alat)  =       7.3700  a.u.
     unit-cell volume          =     100.0789 (a.u.)^3
     number of atoms/cell      =            1
     number of atomic types    =            1
     number of electrons       =        10.00
     number of Kohn-Sham states=           10
     kinetic-energy cutoff     =      20.0000  Ry
     charge density cutoff     =      80.0000  Ry
     scf convergence threshold =      1.0E-08
     mixing beta               =       0.7000
     number of iterations used =            8  plain     mixing
     Exchange-correlation=  SLA  PZ   NOGX NOGC
                           (   1   1   0   0   0   0   0)
     Non magnetic calculation with spin-orbit


     celldm(1)=   7.370000  celldm(2)=   0.000000  celldm(3)=   0.000000
     celldm(4)=   0.000000  celldm(5)=   0.000000  celldm(6)=   0.000000

     crystal axes: (cart. coord. in units of alat)
               a(1) = (  -0.500000   0.000000   0.500000 )  
               a(2) = (   0.000000   0.500000   0.500000 )  
               a(3) = (  -0.500000   0.500000   0.000000 )  

     reciprocal axes: (cart. coord. in units 2 pi/alat)
               b(1) = ( -1.000000 -1.000000  1.000000 )  
               b(2) = (  1.000000  1.000000  1.000000 )  
               b(3) = ( -1.000000  1.000000 -1.000000 )  


     PseudoPot. # 1 for Pt read from file:
     /home/dashlander/Desktop/Sem7/CPD/Assignment_3/pseudo/Pt.rel-pz-n-rrkjus.UPF
     MD5 check sum: 4baafe8ec1942611396c7a5466f52249
     Pseudo is Ultrasoft + core correction, Zval = 10.0
     Generated by new atomic code, or converted to UPF format
     Using radial grid of 1277 points,  6 beta functions with: 
                l(1) =   2
                l(2) =   2
                l(3) =   2
                l(4) =   2
                l(5) =   1
                l(6) =   1
     Q(r) pseudized with 0 coefficients 


     atomic species   valence    mass     pseudopotential
     Pt               10.00   195.08400     Pt( 1.00)

     48 Sym. Ops., with inversion, found



   Cartesian axes

     site n.     atom                  positions (alat units)
         1        Pt     tau(   1) = (   0.0000000   0.0000000   0.0000000  )

     number of k points=     4
                       cart. coord. in units 2pi/alat
        k(    1) = (   0.0000000   0.0000000   0.0000000), wk =   0.0370370
        k(    2) = (  -0.3333333   0.3333333  -0.3333333), wk =   0.2962963
        k(    3) = (   0.0000000   0.6666667   0.0000000), wk =   0.2222222
        k(    4) = (   0.6666667  -0.0000000   0.6666667), wk =   0.4444444

     Dense  grid:     1243 G-vectors     FFT dimensions: (  15,  15,  15)

     Estimated max dynamical RAM per process >      10.57 MB

     Check: negative core charge=   -0.000029

     Initial potential from superposition of free atoms

     starting charge       9.9999, renormalised to      10.0000

     negative rho (up, down):  1.043E-04 0.000E+00
     Starting wfcs are   12 randomized atomic wfcs

     total cpu time spent up to now is        0.3 secs

     Self-consistent Calculation

     iteration #  1     ecut=    20.00 Ry     beta= 0.70
     Davidson diagonalization with overlap
     ethr =  1.00E-02,  avg # of iterations =  2.0

     Threshold (ethr) on eigenvalues was too large:
     Diagonalizing with lowered threshold

     Davidson diagonalization with overlap
     ethr =  1.90E-05,  avg # of iterations =  5.2

     negative rho (up, down):  1.917E-04 0.000E+00

     total cpu time spent up to now is        0.4 secs

     total energy              =     -69.44285997 Ry
     estimated scf accuracy    <       0.00962238 Ry

     iteration #  2     ecut=    20.00 Ry     beta= 0.70
     Davidson diagonalization with overlap
     ethr =  9.62E-05,  avg # of iterations =  2.0

     negative rho (up, down):  2.180E-04 0.000E+00

     total cpu time spent up to now is        0.4 secs

     total energy              =     -69.44515468 Ry
     estimated scf accuracy    <       0.00086815 Ry

     iteration #  3     ecut=    20.00 Ry     beta= 0.70
     Davidson diagonalization with overlap
     ethr =  8.68E-06,  avg # of iterations =  2.0

     negative rho (up, down):  2.354E-04 0.000E+00

     total cpu time spent up to now is        0.5 secs

     total energy              =     -69.44528443 Ry
     estimated scf accuracy    <       0.00002317 Ry

     iteration #  4     ecut=    20.00 Ry     beta= 0.70
     Davidson diagonalization with overlap
     ethr =  2.32E-07,  avg # of iterations =  8.2

     negative rho (up, down):  2.352E-04 0.000E+00

     total cpu time spent up to now is        0.5 secs

     total energy              =     -69.44531244 Ry
     estimated scf accuracy    <       0.00000716 Ry

     iteration #  5     ecut=    20.00 Ry     beta= 0.70
     Davidson diagonalization with overlap
     ethr =  7.16E-08,  avg # of iterations =  1.0

     negative rho (up, down):  2.360E-04 0.000E+00

     total cpu time spent up to now is        0.6 secs

     total energy              =     -69.44531062 Ry
     estimated scf accuracy    <       0.00000298 Ry

     iteration #  6     ecut=    20.00 Ry     beta= 0.70
     Davidson diagonalization with overlap
     ethr =  2.98E-08,  avg # of iterations =  3.5

     negative rho (up, down):  2.360E-04 0.000E+00

     total cpu time spent up to now is        0.6 secs

     total energy              =     -69.44531179 Ry
     estimated scf accuracy    <       0.00000040 Ry

     iteration #  7     ecut=    20.00 Ry     beta= 0.70
     Davidson diagonalization with overlap
     ethr =  3.97E-09,  avg # of iterations =  1.2

     negative rho (up, down):  2.361E-04 0.000E+00

     total cpu time spent up to now is        0.6 secs

     total energy              =     -69.44531170 Ry
     estimated scf accuracy    <       0.00000014 Ry

     iteration #  8     ecut=    20.00 Ry     beta= 0.70
     Davidson diagonalization with overlap
     ethr =  1.40E-09,  avg # of iterations =  3.8

     negative rho (up, down):  2.361E-04 0.000E+00

     total cpu time spent up to now is        0.7 secs

     total energy              =     -69.44531177 Ry
     estimated scf accuracy    <       0.00000005 Ry

     iteration #  9     ecut=    20.00 Ry     beta= 0.70
     Davidson diagonalization with overlap
     ethr =  5.21E-10,  avg # of iterations =  2.5

     negative rho (up, down):  2.361E-04 0.000E+00

     total cpu time spent up to now is        0.7 secs

     End of self-consistent calculation

          k = 0.0000 0.0000 0.0000 (   169 PWs)   bands (ev):

     7.5684   7.5684  13.6668  13.6668  13.6668  13.6668  14.6659  14.6659
    16.4592  16.4592

          k =-0.3333 0.3333-0.3333 (   153 PWs)   bands (ev):

    10.3174  10.3174  13.6853  13.6853  14.4598  14.4598  14.8180  14.8180
    16.9826  16.9826

          k = 0.0000 0.6667 0.0000 (   153 PWs)   bands (ev):

    10.9674  10.9674  11.7809  11.7809  15.4856  15.4856  16.9782  16.9782
    17.0069  17.0069

          k = 0.6667-0.0000 0.6667 (   142 PWs)   bands (ev):

    11.9217  11.9217  12.8487  12.8487  14.1418  14.1418  16.0214  16.0214
    17.5298  17.5298

     highest occupied level (ev):    17.5298

!    total energy              =     -69.44531177 Ry
     estimated scf accuracy    <          2.3E-09 Ry

     The total energy is the sum of the following terms:
     one-electron contribution =      17.69545357 Ry
     hartree contribution      =       3.61117461 Ry
     xc contribution           =     -28.54214246 Ry
     ewald contribution        =     -62.20979750 Ry

     convergence has been achieved in   9 iterations

     negative rho (up, down):  2.361E-04 0.000E+00

     Forces acting on atoms (cartesian axes, Ry/au):

     atom    1 type  1   force =     0.00000000    0.00000000    0.00000000

     Total force =     0.000000     Total SCF correction =     0.000000


     Computing stress (Cartesian axis) and pressure


     negative rho (up, down):  2.361E-04 0.000E+00
          total   stress  (Ry/bohr**3)                   (kbar)     P=      161.39
   0.00109709   0.00000000   0.00000000          161.39        0.00        0.00
   0.00000000   0.00109709  -0.00000000            0.00      161.39       -0.00
   0.00000000  -0.00000000   0.00109709            0.00       -0.00      161.39


     Writing all to output data dir ./platinum.save/ :
     XML data file, charge density, pseudopotentials, collected wavefunctions

     init_run     :      0.20s CPU      0.22s WALL (       1 calls)
     electrons    :      0.35s CPU      0.40s WALL (       1 calls)
     forces       :      0.01s CPU      0.01s WALL (       1 calls)
     stress       :      0.08s CPU      0.08s WALL (       1 calls)

     Called by init_run:
     wfcinit      :      0.02s CPU      0.02s WALL (       1 calls)
     potinit      :      0.01s CPU      0.01s WALL (       1 calls)
     hinit0       :      0.16s CPU      0.17s WALL (       1 calls)

     Called by electrons:
     c_bands      :      0.15s CPU      0.19s WALL (      10 calls)
     sum_band     :      0.09s CPU      0.10s WALL (      10 calls)
     v_of_rho     :      0.00s CPU      0.00s WALL (      10 calls)
     newd         :      0.11s CPU      0.11s WALL (      10 calls)
     mix_rho      :      0.00s CPU      0.00s WALL (      10 calls)

     Called by c_bands:
     init_us_2    :      0.00s CPU      0.00s WALL (      92 calls)
     cegterg      :      0.14s CPU      0.18s WALL (      40 calls)

     Called by *egterg:
     cdiaghg      :      0.01s CPU      0.01s WALL (     162 calls)
     h_psi        :      0.10s CPU      0.12s WALL (     170 calls)
     s_psi        :      0.01s CPU      0.02s WALL (     170 calls)
     g_psi        :      0.00s CPU      0.00s WALL (     126 calls)

     Called by h_psi:
     h_psi:calbec :      0.01s CPU      0.01s WALL (     170 calls)
     vloc_psi     :      0.07s CPU      0.09s WALL (     170 calls)
     add_vuspsi   :      0.01s CPU      0.02s WALL (     170 calls)

     General routines
     calbec       :      0.01s CPU      0.02s WALL (     230 calls)
     fft          :      0.02s CPU      0.03s WALL (     109 calls)
     ffts         :      0.00s CPU      0.00s WALL (      40 calls)
     fftw         :      0.06s CPU      0.07s WALL (    5936 calls)

     Parallel routines

     PWSCF        :      0.73s CPU      0.81s WALL


   This run was terminated on:  13:51:23   4Nov2024            

=------------------------------------------------------------------------------=
   JOB DONE.
=------------------------------------------------------------------------------=
