
     Program PWSCF v.7.3.1 starts on  4Nov2024 at 13:51:38 

     This program is part of the open-source Quantum ESPRESSO suite
     for quantum simulation of materials; please cite
         "P. Giannozzi et al., J. Phys.:Condens. Matter 21 395502 (2009);
         "P. Giannozzi et al., J. Phys.:Condens. Matter 29 465901 (2017);
         "P. Giannozzi et al., J. Chem. Phys. 152 154105 (2020);
          URL http://www.quantum-espresso.org", 
     in publications or presentations arising from this work. More details at
     http://www.quantum-espresso.org/quote

     Parallel version (MPI), running on     1 processors

     MPI processes distributed on     1 nodes
     14408 MiB available memory on the printing compute node when the environment starts

     Waiting for input...
     Reading input from standard input

     Current dimensions of program PWSCF are:
     Max number of different atomic species (ntypx) = 10
     Max number of k-points (npk) =  40000
     Max angular momentum in pseudopotentials (lmaxx) =  4

     Subspace diagonalization in iterative solution of the eigenvalue problem:
     a serial algorithm will be used


     G-vector sticks info
     --------------------
     sticks:   dense  smooth     PW     G-vecs:    dense   smooth      PW
     Sum         151     151     55                 1243     1243     283

     Using Slab Decomposition



     bravais-lattice index     =            2
     lattice parameter (alat)  =       7.3700  a.u.
     unit-cell volume          =     100.0789 (a.u.)^3
     number of atoms/cell      =            1
     number of atomic types    =            1
     number of electrons       =        10.00
     number of Kohn-Sham states=           10
     kinetic-energy cutoff     =      20.0000  Ry
     charge density cutoff     =      80.0000  Ry
     scf convergence threshold =      1.0E-08
     mixing beta               =       0.7000
     number of iterations used =            8  plain     mixing
     Exchange-correlation=  SLA  PZ   NOGX NOGC
                           (   1   1   0   0   0   0   0)
     Non magnetic calculation with spin-orbit


     celldm(1)=   7.370000  celldm(2)=   0.000000  celldm(3)=   0.000000
     celldm(4)=   0.000000  celldm(5)=   0.000000  celldm(6)=   0.000000

     crystal axes: (cart. coord. in units of alat)
               a(1) = (  -0.500000   0.000000   0.500000 )  
               a(2) = (   0.000000   0.500000   0.500000 )  
               a(3) = (  -0.500000   0.500000   0.000000 )  

     reciprocal axes: (cart. coord. in units 2 pi/alat)
               b(1) = ( -1.000000 -1.000000  1.000000 )  
               b(2) = (  1.000000  1.000000  1.000000 )  
               b(3) = ( -1.000000  1.000000 -1.000000 )  


     PseudoPot. # 1 for Pt read from file:
     /home/dashlander/Desktop/Sem7/CPD/Assignment_3/pseudo/Pt.rel-pz-n-rrkjus.UPF
     MD5 check sum: 4baafe8ec1942611396c7a5466f52249
     Pseudo is Ultrasoft + core correction, Zval = 10.0
     Generated by new atomic code, or converted to UPF format
     Using radial grid of 1277 points,  6 beta functions with: 
                l(1) =   2
                l(2) =   2
                l(3) =   2
                l(4) =   2
                l(5) =   1
                l(6) =   1
     Q(r) pseudized with 0 coefficients 


     atomic species   valence    mass     pseudopotential
     Pt               10.00   195.08400     Pt( 1.00)

     48 Sym. Ops., with inversion, found



   Cartesian axes

     site n.     atom                  positions (alat units)
         1        Pt     tau(   1) = (   0.0000000   0.0000000   0.0000000  )

     number of k points=    16
                       cart. coord. in units 2pi/alat
        k(    1) = (   0.0000000   0.0000000   0.0000000), wk =   0.0046296
        k(    2) = (  -0.1666667   0.1666667  -0.1666667), wk =   0.0370370
        k(    3) = (  -0.3333333   0.3333333  -0.3333333), wk =   0.0370370
        k(    4) = (   0.5000000  -0.5000000   0.5000000), wk =   0.0185185
        k(    5) = (   0.0000000   0.3333333   0.0000000), wk =   0.0277778
        k(    6) = (  -0.1666667   0.5000000  -0.1666667), wk =   0.1111111
        k(    7) = (   0.6666667  -0.3333333   0.6666667), wk =   0.1111111
        k(    8) = (   0.5000000  -0.1666667   0.5000000), wk =   0.1111111
        k(    9) = (   0.3333333   0.0000000   0.3333333), wk =   0.0555556
        k(   10) = (   0.0000000   0.6666667   0.0000000), wk =   0.0277778
        k(   11) = (   0.8333333  -0.1666667   0.8333333), wk =   0.1111111
        k(   12) = (   0.6666667  -0.0000000   0.6666667), wk =   0.0555556
        k(   13) = (   0.0000000  -1.0000000   0.0000000), wk =   0.0138889
        k(   14) = (   0.6666667  -0.3333333   1.0000000), wk =   0.1111111
        k(   15) = (   0.5000000  -0.1666667   0.8333333), wk =   0.1111111
        k(   16) = (  -0.3333333  -1.0000000   0.0000000), wk =   0.0555556

     Dense  grid:     1243 G-vectors     FFT dimensions: (  15,  15,  15)

     Estimated max dynamical RAM per process >      11.12 MB

     Check: negative core charge=   -0.000029

     Initial potential from superposition of free atoms

     starting charge       9.9999, renormalised to      10.0000

     negative rho (up, down):  1.043E-04 0.000E+00
     Starting wfcs are   12 randomized atomic wfcs

     total cpu time spent up to now is        0.3 secs

     Self-consistent Calculation

     iteration #  1     ecut=    20.00 Ry     beta= 0.70
     Davidson diagonalization with overlap
     ethr =  1.00E-02,  avg # of iterations =  1.9

     Threshold (ethr) on eigenvalues was too large:
     Diagonalizing with lowered threshold

     Davidson diagonalization with overlap
     ethr =  2.29E-05,  avg # of iterations =  5.9

     negative rho (up, down):  1.959E-04 0.000E+00

     total cpu time spent up to now is        0.6 secs

     total energy              =     -69.45045633 Ry
     estimated scf accuracy    <       0.00231275 Ry

     iteration #  2     ecut=    20.00 Ry     beta= 0.70
     Davidson diagonalization with overlap
     ethr =  2.31E-05,  avg # of iterations =  2.1

     negative rho (up, down):  2.214E-04 0.000E+00

     total cpu time spent up to now is        0.7 secs

     total energy              =     -69.45094262 Ry
     estimated scf accuracy    <       0.00019807 Ry

     iteration #  3     ecut=    20.00 Ry     beta= 0.70
     Davidson diagonalization with overlap
     ethr =  1.98E-06,  avg # of iterations =  2.8

     negative rho (up, down):  2.355E-04 0.000E+00

     total cpu time spent up to now is        0.8 secs

     total energy              =     -69.45437129 Ry
     estimated scf accuracy    <       0.00021885 Ry

     iteration #  4     ecut=    20.00 Ry     beta= 0.70
     Davidson diagonalization with overlap
     ethr =  1.98E-06,  avg # of iterations =  2.1

     negative rho (up, down):  2.382E-04 0.000E+00

     total cpu time spent up to now is        0.9 secs

     total energy              =     -69.45439398 Ry
     estimated scf accuracy    <       0.00001239 Ry

     iteration #  5     ecut=    20.00 Ry     beta= 0.70
     Davidson diagonalization with overlap
     ethr =  1.24E-07,  avg # of iterations =  6.9

     negative rho (up, down):  2.383E-04 0.000E+00

     total cpu time spent up to now is        1.1 secs

     total energy              =     -69.45441181 Ry
     estimated scf accuracy    <       0.00000259 Ry

     iteration #  6     ecut=    20.00 Ry     beta= 0.70
     Davidson diagonalization with overlap
     ethr =  2.59E-08,  avg # of iterations =  2.8

     negative rho (up, down):  2.382E-04 0.000E+00

     total cpu time spent up to now is        1.2 secs

     total energy              =     -69.45440945 Ry
     estimated scf accuracy    <       0.00000510 Ry

     iteration #  7     ecut=    20.00 Ry     beta= 0.70
     Davidson diagonalization with overlap
     ethr =  2.59E-08,  avg # of iterations =  2.0

     negative rho (up, down):  2.382E-04 0.000E+00

     total cpu time spent up to now is        1.3 secs

     total energy              =     -69.45440986 Ry
     estimated scf accuracy    <       0.00000040 Ry

     iteration #  8     ecut=    20.00 Ry     beta= 0.70
     Davidson diagonalization with overlap
     ethr =  3.99E-09,  avg # of iterations =  3.0

     negative rho (up, down):  2.382E-04 0.000E+00

     total cpu time spent up to now is        1.4 secs

     total energy              =     -69.45440996 Ry
     estimated scf accuracy    <       0.00000004 Ry

     iteration #  9     ecut=    20.00 Ry     beta= 0.70
     Davidson diagonalization with overlap
     ethr =  3.76E-10,  avg # of iterations =  3.3

     negative rho (up, down):  2.382E-04 0.000E+00

     total cpu time spent up to now is        1.5 secs

     total energy              =     -69.45440997 Ry
     estimated scf accuracy    <       0.00000001 Ry

     iteration # 10     ecut=    20.00 Ry     beta= 0.70
     Davidson diagonalization with overlap
     ethr =  1.11E-10,  avg # of iterations =  3.1

     negative rho (up, down):  2.382E-04 0.000E+00

     total cpu time spent up to now is        1.6 secs

     End of self-consistent calculation

          k = 0.0000 0.0000 0.0000 (   169 PWs)   bands (ev):

     7.5637   7.5637  13.7784  13.7784  13.7784  13.7784  14.7673  14.7673
    16.6057  16.6057

          k =-0.1667 0.1667-0.1667 (   153 PWs)   bands (ev):

     8.6236   8.6236  13.6379  13.6379  13.9631  13.9631  15.0522  15.0522
    16.3132  16.3132

          k =-0.3333 0.3333-0.3333 (   153 PWs)   bands (ev):

    10.3449  10.3449  13.8064  13.8064  14.5123  14.5123  14.9285  14.9285
    17.1194  17.1194

          k = 0.5000-0.5000 0.5000 (   156 PWs)   bands (ev):

    10.5363  10.5363  13.5836  13.5836  14.5843  14.5843  17.3237  17.3237
    17.8935  17.8935

          k = 0.0000 0.3333 0.0000 (   153 PWs)   bands (ev):

     8.9872   8.9872  13.1990  13.1990  14.3139  14.3139  15.3288  15.3288
    15.9031  15.9031

          k =-0.1667 0.5000-0.1667 (   150 PWs)   bands (ev):

    10.7320  10.7320  12.8925  12.8925  14.0322  14.0322  15.5344  15.5344
    16.9919  16.9919

          k = 0.6667-0.3333 0.6667 (   152 PWs)   bands (ev):

    11.2989  11.2989  13.3381  13.3381  14.5209  14.5209  15.2635  15.2635
    18.2716  18.2716

          k = 0.5000-0.1667 0.5000 (   153 PWs)   bands (ev):

    11.4006  11.4006  13.4994  13.4994  14.2977  14.2977  15.0606  15.0606
    17.1455  17.1455

          k = 0.3333 0.0000 0.3333 (   154 PWs)   bands (ev):

    10.1504  10.1504  13.2059  13.2059  14.0980  14.0980  15.5319  15.5319
    15.7292  15.7292

          k = 0.0000 0.6667 0.0000 (   153 PWs)   bands (ev):

    11.0211  11.0211  11.8624  11.8624  15.5487  15.5487  17.0881  17.0881
    17.1457  17.1457

          k = 0.8333-0.1667 0.8333 (   152 PWs)   bands (ev):

    11.3151  11.3151  11.9244  11.9244  15.5009  15.5009  16.9885  16.9885
    18.4864  18.4864

          k = 0.6667-0.0000 0.6667 (   142 PWs)   bands (ev):

    12.0052  12.0052  12.9257  12.9257  14.2142  14.2142  16.1580  16.1580
    17.6592  17.6592

          k = 0.0000-1.0000 0.0000 (   150 PWs)   bands (ev):

    10.7405  10.7405  11.2614  11.2614  17.9326  17.9326  18.3177  18.3177
    19.2878  19.2878

          k = 0.6667-0.3333 1.0000 (   150 PWs)   bands (ev):

    12.0988  12.0988  12.5709  12.5709  13.5537  13.5537  16.4929  16.4929
    17.1886  17.1886

          k = 0.5000-0.1667 0.8333 (   150 PWs)   bands (ev):

    12.4494  12.4494  12.6422  12.6422  13.8139  13.8139  16.0355  16.0355
    18.0840  18.0840

          k =-0.3333-1.0000 0.0000 (   150 PWs)   bands (ev):

    11.6910  11.6910  12.1885  12.1885  14.8836  14.8836  16.7788  16.7788
    18.7494  18.7494

     highest occupied level (ev):    19.2878

!    total energy              =     -69.45440997 Ry
     estimated scf accuracy    <          2.1E-09 Ry

     The total energy is the sum of the following terms:
     one-electron contribution =      17.65066803 Ry
     hartree contribution      =       3.68169107 Ry
     xc contribution           =     -28.57697157 Ry
     ewald contribution        =     -62.20979750 Ry

     convergence has been achieved in  10 iterations

     negative rho (up, down):  2.382E-04 0.000E+00

     Forces acting on atoms (cartesian axes, Ry/au):

     atom    1 type  1   force =     0.00000000    0.00000000    0.00000000

     Total force =     0.000000     Total SCF correction =     0.000000


     Computing stress (Cartesian axis) and pressure


     negative rho (up, down):  2.382E-04 0.000E+00
          total   stress  (Ry/bohr**3)                   (kbar)     P=      131.31
   0.00089262  -0.00000000  -0.00000000          131.31       -0.00       -0.00
  -0.00000000   0.00089262   0.00000000           -0.00      131.31        0.00
  -0.00000000   0.00000000   0.00089262           -0.00        0.00      131.31


     Writing all to output data dir ./platinum.save/ :
     XML data file, charge density, pseudopotentials, collected wavefunctions

     init_run     :      0.22s CPU      0.24s WALL (       1 calls)
     electrons    :      1.08s CPU      1.22s WALL (       1 calls)
     forces       :      0.02s CPU      0.02s WALL (       1 calls)
     stress       :      0.11s CPU      0.11s WALL (       1 calls)

     Called by init_run:
     wfcinit      :      0.04s CPU      0.04s WALL (       1 calls)
     potinit      :      0.01s CPU      0.01s WALL (       1 calls)
     hinit0       :      0.16s CPU      0.18s WALL (       1 calls)

     Called by electrons:
     c_bands      :      0.75s CPU      0.86s WALL (      11 calls)
     sum_band     :      0.21s CPU      0.24s WALL (      11 calls)
     v_of_rho     :      0.00s CPU      0.00s WALL (      11 calls)
     newd         :      0.13s CPU      0.13s WALL (      11 calls)
     mix_rho      :      0.00s CPU      0.00s WALL (      11 calls)

     Called by c_bands:
     init_us_2    :      0.01s CPU      0.02s WALL (     400 calls)
     cegterg      :      0.69s CPU      0.80s WALL (     176 calls)

     Called by *egterg:
     cdiaghg      :      0.05s CPU      0.05s WALL (     735 calls)
     h_psi        :      0.42s CPU      0.49s WALL (     767 calls)
     s_psi        :      0.06s CPU      0.07s WALL (     767 calls)
     g_psi        :      0.01s CPU      0.01s WALL (     575 calls)

     Called by h_psi:
     h_psi:calbec :      0.05s CPU      0.06s WALL (     767 calls)
     vloc_psi     :      0.29s CPU      0.34s WALL (     767 calls)
     add_vuspsi   :      0.06s CPU      0.07s WALL (     767 calls)

     General routines
     calbec       :      0.07s CPU      0.08s WALL (    1023 calls)
     fft          :      0.02s CPU      0.03s WALL (     119 calls)
     ffts         :      0.00s CPU      0.00s WALL (      44 calls)
     fftw         :      0.22s CPU      0.26s WALL (   25748 calls)

     Parallel routines

     PWSCF        :      1.52s CPU      1.70s WALL


   This run was terminated on:  13:51:40   4Nov2024            

=------------------------------------------------------------------------------=
   JOB DONE.
=------------------------------------------------------------------------------=
