
     Program PWSCF v.7.3.1 starts on  4Nov2024 at 22: 0:45 

     This program is part of the open-source Quantum ESPRESSO suite
     for quantum simulation of materials; please cite
         "P. Giannozzi et al., J. Phys.:Condens. Matter 21 395502 (2009);
         "P. Giannozzi et al., J. Phys.:Condens. Matter 29 465901 (2017);
         "P. Giannozzi et al., J. Chem. Phys. 152 154105 (2020);
          URL http://www.quantum-espresso.org", 
     in publications or presentations arising from this work. More details at
     http://www.quantum-espresso.org/quote

     Parallel version (MPI), running on     1 processors

     MPI processes distributed on     1 nodes
     11851 MiB available memory on the printing compute node when the environment starts

     Waiting for input...
     Reading input from standard input

     Current dimensions of program PWSCF are:
     Max number of different atomic species (ntypx) = 10
     Max number of k-points (npk) =  40000
     Max angular momentum in pseudopotentials (lmaxx) =  4

     Subspace diagonalization in iterative solution of the eigenvalue problem:
     a serial algorithm will be used


     G-vector sticks info
     --------------------
     sticks:   dense  smooth     PW     G-vecs:    dense   smooth      PW
     Sum         151     151     55                 1243     1243     283

     Using Slab Decomposition



     bravais-lattice index     =            2
     lattice parameter (alat)  =       7.3200  a.u.
     unit-cell volume          =      98.0558 (a.u.)^3
     number of atoms/cell      =            1
     number of atomic types    =            1
     number of electrons       =        10.00
     number of Kohn-Sham states=           10
     kinetic-energy cutoff     =      20.0000  Ry
     charge density cutoff     =      80.0000  Ry
     scf convergence threshold =      1.0E-08
     mixing beta               =       0.7000
     number of iterations used =            8  plain     mixing
     Exchange-correlation=  SLA  PZ   NOGX NOGC
                           (   1   1   0   0   0   0   0)
     Non magnetic calculation with spin-orbit


     celldm(1)=   7.320000  celldm(2)=   0.000000  celldm(3)=   0.000000
     celldm(4)=   0.000000  celldm(5)=   0.000000  celldm(6)=   0.000000

     crystal axes: (cart. coord. in units of alat)
               a(1) = (  -0.500000   0.000000   0.500000 )  
               a(2) = (   0.000000   0.500000   0.500000 )  
               a(3) = (  -0.500000   0.500000   0.000000 )  

     reciprocal axes: (cart. coord. in units 2 pi/alat)
               b(1) = ( -1.000000 -1.000000  1.000000 )  
               b(2) = (  1.000000  1.000000  1.000000 )  
               b(3) = ( -1.000000  1.000000 -1.000000 )  


     PseudoPot. # 1 for Pt read from file:
     /home/dashlander/Desktop/Sem7/CPD/Assignment_3/pseudo/Pt.rel-pz-n-rrkjus.UPF
     MD5 check sum: 4baafe8ec1942611396c7a5466f52249
     Pseudo is Ultrasoft + core correction, Zval = 10.0
     Generated by new atomic code, or converted to UPF format
     Using radial grid of 1277 points,  6 beta functions with: 
                l(1) =   2
                l(2) =   2
                l(3) =   2
                l(4) =   2
                l(5) =   1
                l(6) =   1
     Q(r) pseudized with 0 coefficients 


     atomic species   valence    mass     pseudopotential
     Pt               10.00   195.08400     Pt( 1.00)

     48 Sym. Ops., with inversion, found



   Cartesian axes

     site n.     atom                  positions (alat units)
         1        Pt     tau(   1) = (   0.0000000   0.0000000   0.0000000  )

     number of k points=    35
                       cart. coord. in units 2pi/alat
        k(    1) = (   0.0000000   0.0000000   0.0000000), wk =   0.0013717
        k(    2) = (  -0.1111111   0.1111111  -0.1111111), wk =   0.0109739
        k(    3) = (  -0.2222222   0.2222222  -0.2222222), wk =   0.0109739
        k(    4) = (  -0.3333333   0.3333333  -0.3333333), wk =   0.0109739
        k(    5) = (  -0.4444444   0.4444444  -0.4444444), wk =   0.0109739
        k(    6) = (   0.0000000   0.2222222   0.0000000), wk =   0.0082305
        k(    7) = (  -0.1111111   0.3333333  -0.1111111), wk =   0.0329218
        k(    8) = (  -0.2222222   0.4444444  -0.2222222), wk =   0.0329218
        k(    9) = (  -0.3333333   0.5555556  -0.3333333), wk =   0.0329218
        k(   10) = (   0.5555556  -0.3333333   0.5555556), wk =   0.0329218
        k(   11) = (   0.4444444  -0.2222222   0.4444444), wk =   0.0329218
        k(   12) = (   0.3333333  -0.1111111   0.3333333), wk =   0.0329218
        k(   13) = (   0.2222222  -0.0000000   0.2222222), wk =   0.0164609
        k(   14) = (   0.0000000   0.4444444   0.0000000), wk =   0.0082305
        k(   15) = (  -0.1111111   0.5555556  -0.1111111), wk =   0.0329218
        k(   16) = (  -0.2222222   0.6666667  -0.2222222), wk =   0.0329218
        k(   17) = (   0.6666667  -0.2222222   0.6666667), wk =   0.0329218
        k(   18) = (   0.5555556  -0.1111111   0.5555556), wk =   0.0329218
        k(   19) = (   0.4444444   0.0000000   0.4444444), wk =   0.0164609
        k(   20) = (   0.0000000   0.6666667   0.0000000), wk =   0.0082305
        k(   21) = (  -0.1111111   0.7777778  -0.1111111), wk =   0.0329218
        k(   22) = (   0.7777778  -0.1111111   0.7777778), wk =   0.0329218
        k(   23) = (   0.6666667  -0.0000000   0.6666667), wk =   0.0164609
        k(   24) = (   0.0000000   0.8888889   0.0000000), wk =   0.0082305
        k(   25) = (   0.8888889   0.0000000   0.8888889), wk =   0.0164609
        k(   26) = (  -0.2222222   0.4444444   0.0000000), wk =   0.0329218
        k(   27) = (  -0.3333333   0.5555556  -0.1111111), wk =   0.0658436
        k(   28) = (   0.5555556  -0.3333333   0.7777778), wk =   0.0658436
        k(   29) = (  -0.2222222   0.6666667   0.0000000), wk =   0.0329218
        k(   30) = (   0.6666667  -0.2222222   0.8888889), wk =   0.0658436
        k(   31) = (   0.5555556  -0.1111111   0.7777778), wk =   0.0658436
        k(   32) = (   0.4444444   0.0000000   0.6666667), wk =   0.0329218
        k(   33) = (   0.7777778  -0.1111111   1.0000000), wk =   0.0329218
        k(   34) = (   0.6666667  -0.0000000   0.8888889), wk =   0.0329218
        k(   35) = (   0.5555556  -0.1111111   1.0000000), wk =   0.0329218

     Dense  grid:     1243 G-vectors     FFT dimensions: (  15,  15,  15)

     Estimated max dynamical RAM per process >      11.96 MB

     Check: negative core charge=   -0.000022

     Initial potential from superposition of free atoms

     starting charge       9.9999, renormalised to      10.0000

     negative rho (up, down):  7.154E-05 0.000E+00
     Starting wfcs are   12 randomized atomic wfcs

     total cpu time spent up to now is        0.4 secs

     Self-consistent Calculation

     iteration #  1     ecut=    20.00 Ry     beta= 0.70
     Davidson diagonalization with overlap
     ethr =  1.00E-02,  avg # of iterations =  2.2

     Threshold (ethr) on eigenvalues was too large:
     Diagonalizing with lowered threshold

     Davidson diagonalization with overlap
     c_bands:  2 eigenvalues not converged
     ethr =  1.52E-05,  avg # of iterations =  7.8

     negative rho (up, down):  1.638E-04 0.000E+00

     total cpu time spent up to now is        0.9 secs

     total energy              =     -69.45218030 Ry
     estimated scf accuracy    <       0.00441512 Ry

     iteration #  2     ecut=    20.00 Ry     beta= 0.70
     Davidson diagonalization with overlap
     ethr =  4.42E-05,  avg # of iterations =  2.1

     negative rho (up, down):  1.888E-04 0.000E+00

     total cpu time spent up to now is        1.1 secs

     total energy              =     -69.45335634 Ry
     estimated scf accuracy    <       0.00048428 Ry

     iteration #  3     ecut=    20.00 Ry     beta= 0.70
     Davidson diagonalization with overlap
     ethr =  4.84E-06,  avg # of iterations =  2.2

     negative rho (up, down):  2.075E-04 0.000E+00

     total cpu time spent up to now is        1.3 secs

     total energy              =     -69.45343591 Ry
     estimated scf accuracy    <       0.00001463 Ry

     iteration #  4     ecut=    20.00 Ry     beta= 0.70
     Davidson diagonalization with overlap
     c_bands:  1 eigenvalues not converged
     ethr =  1.46E-07,  avg # of iterations =  6.6

     negative rho (up, down):  2.076E-04 0.000E+00

     total cpu time spent up to now is        1.6 secs

     total energy              =     -69.45345722 Ry
     estimated scf accuracy    <       0.00000260 Ry

     iteration #  5     ecut=    20.00 Ry     beta= 0.70
     Davidson diagonalization with overlap
     ethr =  2.60E-08,  avg # of iterations =  3.4

     negative rho (up, down):  2.081E-04 0.000E+00

     total cpu time spent up to now is        1.8 secs

     total energy              =     -69.45345752 Ry
     estimated scf accuracy    <       0.00000039 Ry

     iteration #  6     ecut=    20.00 Ry     beta= 0.70
     Davidson diagonalization with overlap
     ethr =  3.94E-09,  avg # of iterations =  4.0

     negative rho (up, down):  2.082E-04 0.000E+00

     total cpu time spent up to now is        2.0 secs

     total energy              =     -69.45345772 Ry
     estimated scf accuracy    <       0.00000001 Ry

     iteration #  7     ecut=    20.00 Ry     beta= 0.70
     Davidson diagonalization with overlap
     c_bands:  1 eigenvalues not converged
     ethr =  1.15E-10,  avg # of iterations =  5.4

     negative rho (up, down):  2.082E-04 0.000E+00

     total cpu time spent up to now is        2.3 secs

     End of self-consistent calculation

          k = 0.0000 0.0000 0.0000 (   169 PWs)   bands (ev):

     7.8693   7.8693  14.1812  14.1812  14.1812  14.1812  15.1666  15.1666
    17.0773  17.0773

          k =-0.1111 0.1111-0.1111 (   153 PWs)   bands (ev):

     8.3718   8.3718  14.1207  14.1207  14.2972  14.2972  15.2848  15.2848
    16.9038  16.9038

          k =-0.2222 0.2222-0.2222 (   150 PWs)   bands (ev):

     9.6392   9.6392  14.0091  14.0091  14.3914  14.3914  15.5789  15.5789
    16.8160  16.8160

          k =-0.3333 0.3333-0.3333 (   153 PWs)   bands (ev):

    10.6749  10.6749  14.2131  14.2131  14.9335  14.9335  15.3337  15.3337
    17.6146  17.6146

          k =-0.4444 0.4444-0.4444 (   147 PWs)   bands (ev):

    10.8522  10.8522  14.0119  14.0119  15.0225  15.0225  17.1880  17.1880
    18.3717  18.3717

          k = 0.0000 0.2222 0.0000 (   153 PWs)   bands (ev):

     8.5413   8.5413  13.9431  13.9431  14.4657  14.4657  15.3717  15.3717
    16.6625  16.6625

          k =-0.1111 0.3333-0.1111 (   152 PWs)   bands (ev):

     9.5866   9.5866  13.6385  13.6385  14.6179  14.6179  15.7463  15.7463
    16.4859  16.4859

          k =-0.2222 0.4444-0.2222 (   149 PWs)   bands (ev):

    10.8456  10.8456  13.8317  13.8317  14.3629  14.3629  15.5952  15.5952
    17.4614  17.4614

          k =-0.3333 0.5556-0.3333 (   148 PWs)   bands (ev):

    11.2306  11.2306  13.9936  13.9936  15.0303  15.0303  15.5608  15.5608
    18.6460  18.6460

          k = 0.5556-0.3333 0.5556 (   150 PWs)   bands (ev):

    11.2515  11.2515  13.9127  13.9127  15.0386  15.0386  16.2691  16.2691
    18.5755  18.5755

          k = 0.4444-0.2222 0.4444 (   151 PWs)   bands (ev):

    11.2283  11.2283  14.0910  14.0910  14.9475  14.9475  15.3054  15.3054
    17.6532  17.6532

          k = 0.3333-0.1111 0.3333 (   149 PWs)   bands (ev):

    10.5083  10.5083  13.7601  13.7601  14.4682  14.4682  15.6763  15.6763
    16.5976  16.5976

          k = 0.2222-0.0000 0.2222 (   157 PWs)   bands (ev):

     9.1542   9.1542  13.8766  13.8766  14.4847  14.4847  15.5574  15.5574
    16.5287  16.5287

          k = 0.0000 0.4444 0.0000 (   149 PWs)   bands (ev):

    10.2502  10.2502  13.1053  13.1053  14.9170  14.9170  16.3141  16.3141
    16.3388  16.3388

          k =-0.1111 0.5556-0.1111 (   149 PWs)   bands (ev):

    11.2648  11.2648  12.7888  12.7888  14.7177  14.7177  16.4931  16.4931
    17.4823  17.4823

          k =-0.2222 0.6667-0.2222 (   149 PWs)   bands (ev):

    11.8157  11.8157  13.1720  13.1720  14.4847  14.4847  16.2526  16.2526
    18.7777  18.7777

          k = 0.6667-0.2222 0.6667 (   148 PWs)   bands (ev):

    12.0249  12.0249  13.4315  13.4315  14.8115  14.8115  15.9980  15.9980
    18.6539  18.6539

          k = 0.5556-0.1111 0.5556 (   148 PWs)   bands (ev):

    12.2831  12.2831  13.6283  13.6283  14.4299  14.4299  15.8134  15.8134
    17.6911  17.6911

          k = 0.4444 0.0000 0.4444 (   144 PWs)   bands (ev):

    11.8789  11.8789  13.4933  13.4933  14.2032  14.2032  15.8618  15.8618
    16.6707  16.6707

          k = 0.0000 0.6667 0.0000 (   153 PWs)   bands (ev):

    11.3519  11.3519  12.1918  12.1918  16.0072  16.0072  17.5734  17.5734
    17.6442  17.6442

          k =-0.1111 0.7778-0.1111 (   143 PWs)   bands (ev):

    11.5031  11.5031  12.0728  12.0728  16.2139  16.2139  17.6675  17.6675
    18.8631  18.8631

          k = 0.7778-0.1111 0.7778 (   148 PWs)   bands (ev):

    11.8175  11.8175  12.5746  12.5746  15.5792  15.5792  17.2380  17.2380
    18.8759  18.8759

          k = 0.6667-0.0000 0.6667 (   142 PWs)   bands (ev):

    12.3448  12.3448  13.2965  13.2965  14.6132  14.6132  16.6191  16.6191
    18.1607  18.1607

          k = 0.0000 0.8889 0.0000 (   150 PWs)   bands (ev):

    11.1106  11.1106  11.6454  11.6454  18.3832  18.3832  18.5072  18.5072
    19.4631  19.4631

          k = 0.8889 0.0000 0.8889 (   148 PWs)   bands (ev):

    11.2767  11.2767  11.8001  11.8001  17.4175  17.4175  18.2384  18.2384
    19.2939  19.2939

          k =-0.2222 0.4444 0.0000 (   150 PWs)   bands (ev):

    10.7393  10.7393  13.2727  13.2727  14.5169  14.5169  16.2077  16.2077
    16.4579  16.4579

          k =-0.3333 0.5556-0.1111 (   149 PWs)   bands (ev):

    11.8036  11.8036  13.5362  13.5362  14.0436  14.0436  16.0122  16.0122
    17.5059  17.5059

          k = 0.5556-0.3333 0.7778 (   148 PWs)   bands (ev):

    11.9378  11.9378  13.5748  13.5748  14.7625  14.7625  15.8038  15.8038
    18.4445  18.4445

          k =-0.2222 0.6667 0.0000 (   146 PWs)   bands (ev):

    11.8844  11.8844  12.5276  12.5276  14.7111  14.7111  17.3862  17.3862
    17.6780  17.6780

          k = 0.6667-0.2222 0.8889 (   146 PWs)   bands (ev):

    12.2271  12.2271  12.8862  12.8862  14.4905  14.4905  16.9700  16.9700
    18.6080  18.6080

          k = 0.5556-0.1111 0.7778 (   147 PWs)   bands (ev):

    12.6151  12.6151  13.1500  13.1500  14.3027  14.3027  16.5112  16.5112
    18.5063  18.5063

          k = 0.4444 0.0000 0.6667 (   145 PWs)   bands (ev):

    12.9572  12.9572  13.2957  13.2957  13.5433  13.5433  16.5224  16.5224
    17.7348  17.7348

          k = 0.7778-0.1111 1.0000 (   146 PWs)   bands (ev):

    11.6019  11.6019  12.0644  12.0644  16.2154  16.2154  17.9639  17.9639
    19.0960  19.0960

          k = 0.6667-0.0000 0.8889 (   149 PWs)   bands (ev):

    12.0405  12.0405  12.6490  12.6490  15.2364  15.2364  17.1946  17.1946
    19.0592  19.0592

          k = 0.5556-0.1111 1.0000 (   151 PWs)   bands (ev):

    12.5313  12.5313  13.2764  13.2764  14.0292  14.0292  16.7766  16.7766
    19.0281  19.0281

     highest occupied level (ev):    19.4631

!    total energy              =     -69.45345773 Ry
     estimated scf accuracy    <          4.6E-10 Ry

     The total energy is the sum of the following terms:
     one-electron contribution =      18.21713728 Ry
     hartree contribution      =       3.56425975 Ry
     xc contribution           =     -28.60012696 Ry
     ewald contribution        =     -62.63472780 Ry

     convergence has been achieved in   7 iterations

     negative rho (up, down):  2.082E-04 0.000E+00

     Forces acting on atoms (cartesian axes, Ry/au):

     atom    1 type  1   force =     0.00000000    0.00000000    0.00000000

     Total force =     0.000000     Total SCF correction =     0.000000


     Computing stress (Cartesian axis) and pressure


     negative rho (up, down):  2.082E-04 0.000E+00
          total   stress  (Ry/bohr**3)                   (kbar)     P=      194.28
   0.00132072  -0.00000000   0.00000000          194.28       -0.00        0.00
  -0.00000000   0.00132072  -0.00000000           -0.00      194.28       -0.00
   0.00000000  -0.00000000   0.00132072            0.00       -0.00      194.28


     Writing all to output data dir ./platinum.save/ :
     XML data file, charge density, pseudopotentials, collected wavefunctions

     init_run     :      0.23s CPU      0.27s WALL (       1 calls)
     electrons    :      1.72s CPU      1.93s WALL (       1 calls)
     forces       :      0.04s CPU      0.04s WALL (       1 calls)
     stress       :      0.15s CPU      0.15s WALL (       1 calls)

     Called by init_run:
     wfcinit      :      0.06s CPU      0.07s WALL (       1 calls)
     potinit      :      0.01s CPU      0.01s WALL (       1 calls)
     hinit0       :      0.15s CPU      0.17s WALL (       1 calls)

     Called by electrons:
     c_bands      :      1.36s CPU      1.55s WALL (       8 calls)
     sum_band     :      0.28s CPU      0.30s WALL (       8 calls)
     v_of_rho     :      0.00s CPU      0.00s WALL (       8 calls)
     newd         :      0.09s CPU      0.09s WALL (       8 calls)
     mix_rho      :      0.00s CPU      0.00s WALL (       8 calls)

     Called by c_bands:
     init_us_2    :      0.02s CPU      0.02s WALL (     665 calls)
     cegterg      :      1.29s CPU      1.47s WALL (     280 calls)

     Called by *egterg:
     cdiaghg      :      0.08s CPU      0.10s WALL (    1428 calls)
     h_psi        :      0.75s CPU      0.87s WALL (    1498 calls)
     s_psi        :      0.12s CPU      0.13s WALL (    1498 calls)
     g_psi        :      0.01s CPU      0.01s WALL (    1183 calls)

     Called by h_psi:
     h_psi:calbec :      0.09s CPU      0.11s WALL (    1498 calls)
     vloc_psi     :      0.53s CPU      0.61s WALL (    1498 calls)
     add_vuspsi   :      0.12s CPU      0.13s WALL (    1498 calls)

     General routines
     calbec       :      0.13s CPU      0.14s WALL (    1953 calls)
     fft          :      0.01s CPU      0.03s WALL (      89 calls)
     ffts         :      0.00s CPU      0.00s WALL (      32 calls)
     fftw         :      0.39s CPU      0.46s WALL (   47192 calls)

     Parallel routines

     PWSCF        :      2.22s CPU      2.49s WALL


   This run was terminated on:  22: 0:47   4Nov2024            

=------------------------------------------------------------------------------=
   JOB DONE.
=------------------------------------------------------------------------------=
