
     Program PWSCF v.7.3.1 starts on  4Nov2024 at 22: 2:43 

     This program is part of the open-source Quantum ESPRESSO suite
     for quantum simulation of materials; please cite
         "P. Giannozzi et al., J. Phys.:Condens. Matter 21 395502 (2009);
         "P. Giannozzi et al., J. Phys.:Condens. Matter 29 465901 (2017);
         "P. Giannozzi et al., J. Chem. Phys. 152 154105 (2020);
          URL http://www.quantum-espresso.org", 
     in publications or presentations arising from this work. More details at
     http://www.quantum-espresso.org/quote

     Parallel version (MPI), running on     1 processors

     MPI processes distributed on     1 nodes
     11809 MiB available memory on the printing compute node when the environment starts

     Waiting for input...
     Reading input from standard input

     Current dimensions of program PWSCF are:
     Max number of different atomic species (ntypx) = 10
     Max number of k-points (npk) =  40000
     Max angular momentum in pseudopotentials (lmaxx) =  4

     Subspace diagonalization in iterative solution of the eigenvalue problem:
     a serial algorithm will be used


     G-vector sticks info
     --------------------
     sticks:   dense  smooth     PW     G-vecs:    dense   smooth      PW
     Sum         163     163     61                 1459     1459     331

     Using Slab Decomposition



     bravais-lattice index     =            2
     lattice parameter (alat)  =       7.8600  a.u.
     unit-cell volume          =     121.3969 (a.u.)^3
     number of atoms/cell      =            1
     number of atomic types    =            1
     number of electrons       =        10.00
     number of Kohn-Sham states=           10
     kinetic-energy cutoff     =      20.0000  Ry
     charge density cutoff     =      80.0000  Ry
     scf convergence threshold =      1.0E-08
     mixing beta               =       0.7000
     number of iterations used =            8  plain     mixing
     Exchange-correlation=  SLA  PZ   NOGX NOGC
                           (   1   1   0   0   0   0   0)
     Non magnetic calculation with spin-orbit


     celldm(1)=   7.860000  celldm(2)=   0.000000  celldm(3)=   0.000000
     celldm(4)=   0.000000  celldm(5)=   0.000000  celldm(6)=   0.000000

     crystal axes: (cart. coord. in units of alat)
               a(1) = (  -0.500000   0.000000   0.500000 )  
               a(2) = (   0.000000   0.500000   0.500000 )  
               a(3) = (  -0.500000   0.500000   0.000000 )  

     reciprocal axes: (cart. coord. in units 2 pi/alat)
               b(1) = ( -1.000000 -1.000000  1.000000 )  
               b(2) = (  1.000000  1.000000  1.000000 )  
               b(3) = ( -1.000000  1.000000 -1.000000 )  


     PseudoPot. # 1 for Pt read from file:
     /home/dashlander/Desktop/Sem7/CPD/Assignment_3/pseudo/Pt.rel-pz-n-rrkjus.UPF
     MD5 check sum: 4baafe8ec1942611396c7a5466f52249
     Pseudo is Ultrasoft + core correction, Zval = 10.0
     Generated by new atomic code, or converted to UPF format
     Using radial grid of 1277 points,  6 beta functions with: 
                l(1) =   2
                l(2) =   2
                l(3) =   2
                l(4) =   2
                l(5) =   1
                l(6) =   1
     Q(r) pseudized with 0 coefficients 


     atomic species   valence    mass     pseudopotential
     Pt               10.00   195.08400     Pt( 1.00)

     48 Sym. Ops., with inversion, found



   Cartesian axes

     site n.     atom                  positions (alat units)
         1        Pt     tau(   1) = (   0.0000000   0.0000000   0.0000000  )

     number of k points=    35
                       cart. coord. in units 2pi/alat
        k(    1) = (   0.0000000   0.0000000   0.0000000), wk =   0.0013717
        k(    2) = (  -0.1111111   0.1111111  -0.1111111), wk =   0.0109739
        k(    3) = (  -0.2222222   0.2222222  -0.2222222), wk =   0.0109739
        k(    4) = (  -0.3333333   0.3333333  -0.3333333), wk =   0.0109739
        k(    5) = (  -0.4444444   0.4444444  -0.4444444), wk =   0.0109739
        k(    6) = (   0.0000000   0.2222222   0.0000000), wk =   0.0082305
        k(    7) = (  -0.1111111   0.3333333  -0.1111111), wk =   0.0329218
        k(    8) = (  -0.2222222   0.4444444  -0.2222222), wk =   0.0329218
        k(    9) = (  -0.3333333   0.5555556  -0.3333333), wk =   0.0329218
        k(   10) = (   0.5555556  -0.3333333   0.5555556), wk =   0.0329218
        k(   11) = (   0.4444444  -0.2222222   0.4444444), wk =   0.0329218
        k(   12) = (   0.3333333  -0.1111111   0.3333333), wk =   0.0329218
        k(   13) = (   0.2222222  -0.0000000   0.2222222), wk =   0.0164609
        k(   14) = (   0.0000000   0.4444444   0.0000000), wk =   0.0082305
        k(   15) = (  -0.1111111   0.5555556  -0.1111111), wk =   0.0329218
        k(   16) = (  -0.2222222   0.6666667  -0.2222222), wk =   0.0329218
        k(   17) = (   0.6666667  -0.2222222   0.6666667), wk =   0.0329218
        k(   18) = (   0.5555556  -0.1111111   0.5555556), wk =   0.0329218
        k(   19) = (   0.4444444   0.0000000   0.4444444), wk =   0.0164609
        k(   20) = (   0.0000000   0.6666667   0.0000000), wk =   0.0082305
        k(   21) = (  -0.1111111   0.7777778  -0.1111111), wk =   0.0329218
        k(   22) = (   0.7777778  -0.1111111   0.7777778), wk =   0.0329218
        k(   23) = (   0.6666667  -0.0000000   0.6666667), wk =   0.0164609
        k(   24) = (   0.0000000   0.8888889   0.0000000), wk =   0.0082305
        k(   25) = (   0.8888889   0.0000000   0.8888889), wk =   0.0164609
        k(   26) = (  -0.2222222   0.4444444   0.0000000), wk =   0.0329218
        k(   27) = (  -0.3333333   0.5555556  -0.1111111), wk =   0.0658436
        k(   28) = (   0.5555556  -0.3333333   0.7777778), wk =   0.0658436
        k(   29) = (  -0.2222222   0.6666667   0.0000000), wk =   0.0329218
        k(   30) = (   0.6666667  -0.2222222   0.8888889), wk =   0.0658436
        k(   31) = (   0.5555556  -0.1111111   0.7777778), wk =   0.0658436
        k(   32) = (   0.4444444   0.0000000   0.6666667), wk =   0.0329218
        k(   33) = (   0.7777778  -0.1111111   1.0000000), wk =   0.0329218
        k(   34) = (   0.6666667  -0.0000000   0.8888889), wk =   0.0329218
        k(   35) = (   0.5555556  -0.1111111   1.0000000), wk =   0.0329218

     Dense  grid:     1459 G-vectors     FFT dimensions: (  15,  15,  15)

     Estimated max dynamical RAM per process >      13.91 MB

     Check: negative core charge=   -0.000051

     Initial potential from superposition of free atoms

     starting charge       9.9999, renormalised to      10.0000

     negative rho (up, down):  2.287E-04 0.000E+00
     Starting wfcs are   12 randomized atomic wfcs

     total cpu time spent up to now is        0.4 secs

     Self-consistent Calculation

     iteration #  1     ecut=    20.00 Ry     beta= 0.70
     Davidson diagonalization with overlap
     ethr =  1.00E-02,  avg # of iterations =  2.0

     Threshold (ethr) on eigenvalues was too large:
     Diagonalizing with lowered threshold

     Davidson diagonalization with overlap
     ethr =  4.52E-05,  avg # of iterations =  6.2

     negative rho (up, down):  3.073E-04 0.000E+00

     total cpu time spent up to now is        0.9 secs

     total energy              =     -69.43895646 Ry
     estimated scf accuracy    <       0.00178448 Ry

     iteration #  2     ecut=    20.00 Ry     beta= 0.70
     Davidson diagonalization with overlap
     ethr =  1.78E-05,  avg # of iterations =  2.2

     negative rho (up, down):  3.297E-04 0.000E+00

     total cpu time spent up to now is        1.1 secs

     total energy              =     -69.43932126 Ry
     estimated scf accuracy    <       0.00019435 Ry

     iteration #  3     ecut=    20.00 Ry     beta= 0.70
     Davidson diagonalization with overlap
     ethr =  1.94E-06,  avg # of iterations =  3.1

     negative rho (up, down):  3.448E-04 0.000E+00

     total cpu time spent up to now is        1.4 secs

     total energy              =     -69.43939125 Ry
     estimated scf accuracy    <       0.00000999 Ry

     iteration #  4     ecut=    20.00 Ry     beta= 0.70
     Davidson diagonalization with overlap
     ethr =  9.99E-08,  avg # of iterations =  5.3

     negative rho (up, down):  3.446E-04 0.000E+00

     total cpu time spent up to now is        1.6 secs

     total energy              =     -69.43939808 Ry
     estimated scf accuracy    <       0.00000048 Ry

     iteration #  5     ecut=    20.00 Ry     beta= 0.70
     Davidson diagonalization with overlap
     ethr =  4.85E-09,  avg # of iterations =  6.1

     negative rho (up, down):  3.447E-04 0.000E+00

     total cpu time spent up to now is        1.9 secs

     End of self-consistent calculation

          k = 0.0000 0.0000 0.0000 (   169 PWs)   bands (ev):

     5.0159   5.0159  10.2021  10.2021  10.2021  10.2021  11.2333  11.2333
    12.5189  12.5189

          k =-0.1111 0.1111-0.1111 (   172 PWs)   bands (ev):

     5.4268   5.4268  10.1840  10.1840  10.2709  10.2709  11.3144  11.3144
    12.3904  12.3904

          k =-0.2222 0.2222-0.2222 (   178 PWs)   bands (ev):

     6.5031   6.5031  10.1599  10.1599  10.3254  10.3254  11.5342  11.5342
    12.2843  12.2843

          k =-0.3333 0.3333-0.3333 (   183 PWs)   bands (ev):

     7.5069   7.5069  10.2165  10.2165  10.8808  10.8808  11.3671  11.3671
    12.8277  12.8277

          k =-0.4444 0.4444-0.4444 (   180 PWs)   bands (ev):

     7.7617   7.7617  10.0884  10.0884  11.1187  11.1187  12.8255  12.8255
    13.3991  13.3991

          k = 0.0000 0.2222 0.0000 (   173 PWs)   bands (ev):

     5.5656   5.5656  10.0691  10.0691  10.3865  10.3865  11.3608  11.3608
    12.2679  12.2679

          k =-0.1111 0.3333-0.1111 (   176 PWs)   bands (ev):

     6.4423   6.4423   9.8956   9.8956  10.4913  10.4913  11.6262  11.6262
    12.1225  12.1225

          k =-0.2222 0.4444-0.2222 (   184 PWs)   bands (ev):

     7.5852   7.5852  10.0332  10.0332  10.3834  10.3834  11.5340  11.5340
    12.7333  12.7333

          k =-0.3333 0.5556-0.3333 (   180 PWs)   bands (ev):

     8.0406   8.0406  10.1034  10.1034  11.0435  11.0435  11.5184  11.5184
    13.5403  13.5403

          k = 0.5556-0.3333 0.5556 (   180 PWs)   bands (ev):

     8.0834   8.0834  10.0495  10.0495  11.1027  11.1027  12.0539  12.0539
    13.5151  13.5151

          k = 0.4444-0.2222 0.4444 (   181 PWs)   bands (ev):

     7.9982   7.9982  10.1502  10.1502  10.9491  10.9491  11.3323  11.3323
    12.8986  12.8986

          k = 0.3333-0.1111 0.3333 (   178 PWs)   bands (ev):

     7.2488   7.2488   9.9887   9.9887  10.4148  10.4148  11.5971  11.5971
    12.1786  12.1786

          k = 0.2222-0.0000 0.2222 (   174 PWs)   bands (ev):

     6.0766   6.0766  10.0474  10.0474  10.3950  10.3950  11.4990  11.4990
    12.1499  12.1499

          k = 0.0000 0.4444 0.0000 (   178 PWs)   bands (ev):

     7.0183   7.0183   9.5415   9.5415  10.7037  10.7037  11.9640  11.9640
    12.0755  12.0755

          k =-0.1111 0.5556-0.1111 (   184 PWs)   bands (ev):

     7.9518   7.9518   9.3260   9.3260  10.6487  10.6487  12.1142  12.1142
    12.7459  12.7459

          k =-0.2222 0.6667-0.2222 (   184 PWs)   bands (ev):

     8.5288   8.5288   9.6110   9.6110  10.5420  10.5420  11.9496  11.9496
    13.6228  13.6228

          k = 0.6667-0.2222 0.6667 (   182 PWs)   bands (ev):

     8.7068   8.7068   9.7973   9.7973  10.8489  10.8489  11.7900  11.7900
    13.5672  13.5672

          k = 0.5556-0.1111 0.5556 (   182 PWs)   bands (ev):

     8.8576   8.8576   9.8961   9.8961  10.6205  10.6205  11.6134  11.6134
    12.9399  12.9399

          k = 0.4444 0.0000 0.4444 (   184 PWs)   bands (ev):

     8.4140   8.4140   9.8085   9.8085  10.3369  10.3369  11.6489  11.6489
    12.2668  12.2668

          k = 0.0000 0.6667 0.0000 (   182 PWs)   bands (ev):

     8.1619   8.1619   8.9065   8.9065  11.6047  11.6047  12.8091  12.8091
    12.8816  12.8816

          k =-0.1111 0.7778-0.1111 (   187 PWs)   bands (ev):

     8.3674   8.3674   8.8189   8.8189  11.8387  11.8387  12.8832  12.8832
    13.7236  13.7236

          k = 0.7778-0.1111 0.7778 (   186 PWs)   bands (ev):

     8.6279   8.6279   9.1848   9.1848  11.4175  11.4175  12.5870  12.5870
    13.7492  13.7492

          k = 0.6667-0.0000 0.6667 (   186 PWs)   bands (ev):

     8.9920   8.9920   9.6859   9.6859  10.7560  10.7560  12.1438  12.1438
    13.2739  13.2739

          k = 0.0000 0.8889 0.0000 (   190 PWs)   bands (ev):

     8.1067   8.1067   8.5120   8.5120  13.2818  13.2818  13.3792  13.3792
    14.3785  14.3785

          k = 0.8889 0.0000 0.8889 (   188 PWs)   bands (ev):

     8.2433   8.2433   8.6209   8.6209  12.7394  12.7394  13.2175  13.2175
    14.1106  14.1106

          k =-0.2222 0.4444 0.0000 (   184 PWs)   bands (ev):

     7.4291   7.4291   9.6604   9.6604  10.4764  10.4764  11.9457  11.9457
    12.0701  12.0701

          k =-0.3333 0.5556-0.1111 (   183 PWs)   bands (ev):

     8.4197   8.4197   9.8338   9.8338  10.2395  10.2395  11.7788  11.7788
    12.7996  12.7996

          k = 0.5556-0.3333 0.7778 (   185 PWs)   bands (ev):

     8.6115   8.6115   9.8825   9.8825  10.8120  10.8120  11.6739  11.6739
    13.4264  13.4264

          k =-0.2222 0.6667 0.0000 (   186 PWs)   bands (ev):

     8.5704   8.5704   9.1434   9.1434  10.7064  10.7064  12.6994  12.6994
    12.9197  12.9197

          k = 0.6667-0.2222 0.8889 (   188 PWs)   bands (ev):

     8.9010   8.9010   9.4096   9.4096  10.5962  10.5962  12.4384  12.4384
    13.5445  13.5445

          k = 0.5556-0.1111 0.7778 (   187 PWs)   bands (ev):

     9.1732   9.1732   9.6010   9.6010  10.4975  10.4975  12.1263  12.1263
    13.4789  13.4789

          k = 0.4444 0.0000 0.6667 (   185 PWs)   bands (ev):

     9.3369   9.3369   9.6554   9.6554  10.0058  10.0058  12.1163  12.1163
    12.9649  12.9649

          k = 0.7778-0.1111 1.0000 (   188 PWs)   bands (ev):

     8.4799   8.4799   8.8088   8.8088  11.8731  11.8731  13.0745  13.0745
    13.9217  13.9217

          k = 0.6667-0.0000 0.8889 (   182 PWs)   bands (ev):

     8.8099   8.8099   9.2294   9.2294  11.1738  11.1738  12.5781  12.5781
    13.8686  13.8686

          k = 0.5556-0.1111 1.0000 (   187 PWs)   bands (ev):

     9.1720   9.1720   9.6512   9.6512  10.3097  10.3097  12.3184  12.3184
    13.8283  13.8283

     highest occupied level (ev):    14.3785

!    total energy              =     -69.43939852 Ry
     estimated scf accuracy    <          8.4E-09 Ry

     The total energy is the sum of the following terms:
     one-electron contribution =      12.42508053 Ry
     hartree contribution      =       4.84161729 Ry
     xc contribution           =     -28.37451776 Ry
     ewald contribution        =     -58.33157858 Ry

     convergence has been achieved in   5 iterations

     negative rho (up, down):  3.447E-04 0.000E+00

     Forces acting on atoms (cartesian axes, Ry/au):

     atom    1 type  1   force =     0.00000000    0.00000000    0.00000000

     Total force =     0.000000     Total SCF correction =     0.000000


     Computing stress (Cartesian axis) and pressure


     negative rho (up, down):  3.447E-04 0.000E+00
          total   stress  (Ry/bohr**3)                   (kbar)     P=     -275.13
  -0.00187031   0.00000000  -0.00000000         -275.13        0.00       -0.00
   0.00000000  -0.00187031   0.00000000            0.00     -275.13        0.00
  -0.00000000   0.00000000  -0.00187031           -0.00        0.00     -275.13


     Writing all to output data dir ./platinum.save/ :
     XML data file, charge density, pseudopotentials, collected wavefunctions

     init_run     :      0.23s CPU      0.28s WALL (       1 calls)
     electrons    :      1.39s CPU      1.55s WALL (       1 calls)
     forces       :      0.04s CPU      0.04s WALL (       1 calls)
     stress       :      0.18s CPU      0.18s WALL (       1 calls)

     Called by init_run:
     wfcinit      :      0.05s CPU      0.08s WALL (       1 calls)
     potinit      :      0.01s CPU      0.01s WALL (       1 calls)
     hinit0       :      0.16s CPU      0.17s WALL (       1 calls)

     Called by electrons:
     c_bands      :      1.11s CPU      1.26s WALL (       6 calls)
     sum_band     :      0.21s CPU      0.23s WALL (       6 calls)
     v_of_rho     :      0.00s CPU      0.00s WALL (       6 calls)
     newd         :      0.07s CPU      0.07s WALL (       6 calls)
     mix_rho      :      0.00s CPU      0.00s WALL (       6 calls)

     Called by c_bands:
     init_us_2    :      0.02s CPU      0.02s WALL (     525 calls)
     cegterg      :      1.04s CPU      1.18s WALL (     210 calls)

     Called by *egterg:
     cdiaghg      :      0.06s CPU      0.07s WALL (    1044 calls)
     h_psi        :      0.60s CPU      0.70s WALL (    1114 calls)
     s_psi        :      0.10s CPU      0.12s WALL (    1114 calls)
     g_psi        :      0.01s CPU      0.01s WALL (     869 calls)

     Called by h_psi:
     h_psi:calbec :      0.08s CPU      0.10s WALL (    1114 calls)
     vloc_psi     :      0.40s CPU      0.47s WALL (    1114 calls)
     add_vuspsi   :      0.10s CPU      0.12s WALL (    1114 calls)

     General routines
     calbec       :      0.12s CPU      0.14s WALL (    1499 calls)
     fft          :      0.02s CPU      0.03s WALL (      69 calls)
     ffts         :      0.00s CPU      0.00s WALL (      24 calls)
     fftw         :      0.29s CPU      0.35s WALL (   35764 calls)

     Parallel routines

     PWSCF        :      1.94s CPU      2.16s WALL


   This run was terminated on:  22: 2:46   4Nov2024            

=------------------------------------------------------------------------------=
   JOB DONE.
=------------------------------------------------------------------------------=
